MODEL 1
REMARK VINA RESULT:      -0.0      0.000      0.000
REMARK  6 active torsions:
REMARK  status: ('A' for Active; 'I' for Inactive)
REMARK    1  A    between atoms: C03_1  and  C10_8 
REMARK    2  A    between atoms: C04_2  and  C08_6 
REMARK    3  A    between atoms: C15_13  and  C18_16 
REMARK    4  A    between atoms: C18_16  and  C20_18 
REMARK    5  A    between atoms: C20_18  and  C21_19 
REMARK    6  A    between atoms: C21_19  and  C22_20 
ROOT
ATOM      1  C08 CBD B1001       4.684   3.299   1.421  1.00 27.96     0.033 A 
ATOM      2  C11 CBD B1001       4.385   1.952   1.251  1.00 27.96     0.129 A 
ATOM      3  C12 CBD B1001       4.478   4.186   0.354  1.00 27.96     0.129 A 
ATOM      4  C15 CBD B1001       3.749   2.334  -1.035  1.00 27.96    -0.018 A 
ATOM      5  C16 CBD B1001       3.935   1.461   0.030  1.00 27.96     0.023 A 
ATOM      6  C17 CBD B1001       4.023   3.694  -0.875  1.00 27.96     0.023 A 
ATOM      7  O01 CBD B1001       4.579   1.083   2.335  1.00 27.96    -0.190 OA
ATOM      8  O02 CBD B1001       4.740   5.560   0.469  1.00 27.96    -0.190 OA
ENDROOT
BRANCH   1   9
ATOM      9  C04 CBD B1001       5.143   3.677   2.849  1.00 27.96     0.051 C 
ATOM     10  C07 CBD B1001       3.950   4.387   3.452  1.00 27.96    -0.030 C 
ATOM     11  C09 CBD B1001       3.962   4.476   4.759  1.00 27.96    -0.048 C 
ATOM     12  C06 CBD B1001       5.246   4.892   5.480  1.00 27.96     0.022 C 
ATOM     13  C13 CBD B1001       3.001   3.557   5.507  1.00 27.96     0.026 C 
ATOM     14  C05 CBD B1001       6.531   4.718   4.642  1.00 27.96     0.009 C 
ATOM     15  C03 CBD B1001       6.330   4.609   3.120  1.00 27.96     0.027 C 
BRANCH  15  16
ATOM     16  C10 CBD B1001       7.666   4.106   2.562  1.00 27.96    -0.044 C 
ATOM     17  C19 CBD B1001       8.382   3.199   3.227  1.00 27.96    -0.009 C 
ATOM     18  C14 CBD B1001       8.197   4.691   1.238  1.00 27.96     0.026 C 
ENDBRANCH  15  16
ENDBRANCH   1   9
BRANCH   4  19
ATOM     19  C18 CBD B1001       3.246   1.767  -2.386  1.00 27.96     0.026 C 
BRANCH  19  20
ATOM     20  C20 CBD B1001       4.270   0.724  -2.906  1.00 27.96     0.005 C 
BRANCH  20  21
ATOM     21  C21 CBD B1001       5.590   1.432  -3.326  1.00 27.96     0.000 C 
BRANCH  21  22
ATOM     22  C22 CBD B1001       6.767   0.842  -2.513  1.00 27.96     0.000 C 
ATOM     23  C23 CBD B1001       7.332   1.932  -1.570  1.00 27.96     0.000 C 
ENDBRANCH  21  22
ENDBRANCH  20  21
ENDBRANCH  19  20
ENDBRANCH   4  19
TORSDOF 6
ENDMDL
MODEL 2
REMARK VINA RESULT:      -0.0      8.801     11.542
REMARK  6 active torsions:
REMARK  status: ('A' for Active; 'I' for Inactive)
REMARK    1  A    between atoms: C03_1  and  C10_8 
REMARK    2  A    between atoms: C04_2  and  C08_6 
REMARK    3  A    between atoms: C15_13  and  C18_16 
REMARK    4  A    between atoms: C18_16  and  C20_18 
REMARK    5  A    between atoms: C20_18  and  C21_19 
REMARK    6  A    between atoms: C21_19  and  C22_20 
ROOT
ATOM      1  C08 CBD B1001      -2.125  -3.887   3.147  1.00 27.96     0.033 A 
ATOM      2  C11 CBD B1001      -3.370  -4.469   2.944  1.00 27.96     0.129 A 
ATOM      3  C12 CBD B1001      -1.934  -3.043   4.250  1.00 27.96     0.129 A 
ATOM      4  C15 CBD B1001      -4.263  -3.338   4.867  1.00 27.96    -0.018 A 
ATOM      5  C16 CBD B1001      -4.443  -4.189   3.784  1.00 27.96     0.023 A 
ATOM      6  C17 CBD B1001      -3.012  -2.762   5.099  1.00 27.96     0.023 A 
ATOM      7  O01 CBD B1001      -3.537  -5.325   1.846  1.00 27.96    -0.190 OA
ATOM      8  O02 CBD B1001      -0.695  -2.442   4.522  1.00 27.96    -0.190 OA
ENDROOT
BRANCH   1   9
ATOM      9  C04 CBD B1001      -1.039  -4.331   2.137  1.00 27.96     0.051 C 
ATOM     10  C07 CBD B1001      -0.161  -5.281   2.922  1.00 27.96    -0.030 C 
ATOM     11  C09 CBD B1001       0.598  -6.062   2.193  1.00 27.96    -0.048 C 
ATOM     12  C06 CBD B1001       1.375  -5.477   1.012  1.00 27.96     0.022 C 
ATOM     13  C13 CBD B1001       0.173  -7.524   2.101  1.00 27.96     0.026 C 
ATOM     14  C05 CBD B1001       0.834  -4.124   0.502  1.00 27.96     0.009 C 
ATOM     15  C03 CBD B1001      -0.062  -3.347   1.483  1.00 27.96     0.027 C 
BRANCH  15  16
ATOM     16  C10 CBD B1001      -0.735  -2.251   0.649  1.00 27.96    -0.044 C 
ATOM     17  C19 CBD B1001      -1.135  -2.496  -0.600  1.00 27.96    -0.009 C 
ATOM     18  C14 CBD B1001      -0.910  -0.844   1.255  1.00 27.96     0.026 C 
ENDBRANCH  15  16
ENDBRANCH   1   9
BRANCH   4  19
ATOM     19  C18 CBD B1001      -5.470  -3.040   5.791  1.00 27.96     0.026 C 
BRANCH  19  20
ATOM     20  C20 CBD B1001      -6.595  -2.378   4.952  1.00 27.96     0.005 C 
BRANCH  20  21
ATOM     21  C21 CBD B1001      -6.166  -0.949   4.514  1.00 27.96     0.000 C 
BRANCH  21  22
ATOM     22  C22 CBD B1001      -6.201  -0.857   2.970  1.00 27.96     0.000 C 
ATOM     23  C23 CBD B1001      -4.759  -0.666   2.438  1.00 27.96     0.000 C 
ENDBRANCH  21  22
ENDBRANCH  20  21
ENDBRANCH  19  20
ENDBRANCH   4  19
TORSDOF 6
ENDMDL
MODEL 3
REMARK VINA RESULT:      -0.0      6.599      9.327
REMARK  6 active torsions:
REMARK  status: ('A' for Active; 'I' for Inactive)
REMARK    1  A    between atoms: C03_1  and  C10_8 
REMARK    2  A    between atoms: C04_2  and  C08_6 
REMARK    3  A    between atoms: C15_13  and  C18_16 
REMARK    4  A    between atoms: C18_16  and  C20_18 
REMARK    5  A    between atoms: C20_18  and  C21_19 
REMARK    6  A    between atoms: C21_19  and  C22_20 
ROOT
ATOM      1  C08 CBD B1001       1.363  -2.873   3.959  1.00 27.96     0.033 A 
ATOM      2  C11 CBD B1001       0.429  -1.949   3.505  1.00 27.96     0.129 A 
ATOM      3  C12 CBD B1001       0.917  -4.068   4.543  1.00 27.96     0.129 A 
ATOM      4  C15 CBD B1001      -1.381  -3.339   4.260  1.00 27.96    -0.018 A 
ATOM      5  C16 CBD B1001      -0.936  -2.165   3.665  1.00 27.96     0.023 A 
ATOM      6  C17 CBD B1001      -0.456  -4.288   4.702  1.00 27.96     0.023 A 
ATOM      7  O01 CBD B1001       0.893  -0.769   2.907  1.00 27.96    -0.190 OA
ATOM      8  O02 CBD B1001       1.810  -5.049   5.001  1.00 27.96    -0.190 OA
ENDROOT
BRANCH   1   9
ATOM      9  C04 CBD B1001       2.834  -2.487   3.674  1.00 27.96     0.051 C 
ATOM     10  C07 CBD B1001       3.246  -3.393   2.534  1.00 27.96    -0.030 C 
ATOM     11  C09 CBD B1001       4.313  -3.007   1.880  1.00 27.96    -0.048 C 
ATOM     12  C06 CBD B1001       5.547  -2.534   2.652  1.00 27.96     0.022 C 
ATOM     13  C13 CBD B1001       4.080  -2.411   0.495  1.00 27.96     0.026 C 
ATOM     14  C05 CBD B1001       5.262  -2.113   4.110  1.00 27.96     0.009 C 
ATOM     15  C03 CBD B1001       3.949  -2.640   4.716  1.00 27.96     0.027 C 
BRANCH  15  16
ATOM     16  C10 CBD B1001       3.730  -1.828   5.997  1.00 27.96    -0.044 C 
ATOM     17  C19 CBD B1001       4.034  -0.529   6.039  1.00 27.96    -0.009 C 
ATOM     18  C14 CBD B1001       3.191  -2.537   7.255  1.00 27.96     0.026 C 
ENDBRANCH  15  16
ENDBRANCH   1   9
BRANCH   4  19
ATOM     19  C18 CBD B1001      -2.904  -3.561   4.427  1.00 27.96     0.026 C 
BRANCH  19  20
ATOM     20  C20 CBD B1001      -3.484  -2.426   5.312  1.00 27.96     0.005 C 
BRANCH  20  21
ATOM     21  C21 CBD B1001      -2.975  -2.574   6.774  1.00 27.96     0.000 C 
BRANCH  21  22
ATOM     22  C22 CBD B1001      -2.226  -1.285   7.187  1.00 27.96     0.000 C 
ATOM     23  C23 CBD B1001      -0.729  -1.611   7.402  1.00 27.96     0.000 C 
ENDBRANCH  21  22
ENDBRANCH  20  21
ENDBRANCH  19  20
ENDBRANCH   4  19
TORSDOF 6
ENDMDL
MODEL 4
REMARK VINA RESULT:      -0.0      6.341     10.971
REMARK  6 active torsions:
REMARK  status: ('A' for Active; 'I' for Inactive)
REMARK    1  A    between atoms: C03_1  and  C10_8 
REMARK    2  A    between atoms: C04_2  and  C08_6 
REMARK    3  A    between atoms: C15_13  and  C18_16 
REMARK    4  A    between atoms: C18_16  and  C20_18 
REMARK    5  A    between atoms: C20_18  and  C21_19 
REMARK    6  A    between atoms: C21_19  and  C22_20 
ROOT
ATOM      1  C08 CBD B1001       5.069  -3.298  -5.491  1.00 27.96     0.033 A 
ATOM      2  C11 CBD B1001       5.914  -4.062  -4.695  1.00 27.96     0.129 A 
ATOM      3  C12 CBD B1001       5.240  -1.907  -5.535  1.00 27.96     0.129 A 
ATOM      4  C15 CBD B1001       7.052  -2.088  -3.930  1.00 27.96    -0.018 A 
ATOM      5  C16 CBD B1001       6.892  -3.468  -3.904  1.00 27.96     0.023 A 
ATOM      6  C17 CBD B1001       6.226  -1.308  -4.742  1.00 27.96     0.023 A 
ATOM      7  O01 CBD B1001       5.740  -5.453  -4.677  1.00 27.96    -0.190 OA
ATOM      8  O02 CBD B1001       4.433  -1.084  -6.336  1.00 27.96    -0.190 OA
ENDROOT
BRANCH   1   9
ATOM      9  C04 CBD B1001       4.060  -4.123  -6.326  1.00 27.96     0.051 C 
ATOM     10  C07 CBD B1001       4.607  -4.068  -7.736  1.00 27.96    -0.030 C 
ATOM     11  C09 CBD B1001       4.137  -4.984  -8.547  1.00 27.96    -0.048 C 
ATOM     12  C06 CBD B1001       2.635  -5.276  -8.572  1.00 27.96     0.022 C 
ATOM     13  C13 CBD B1001       5.083  -6.130  -8.894  1.00 27.96     0.026 C 
ATOM     14  C05 CBD B1001       1.873  -4.801  -7.317  1.00 27.96     0.009 C 
ATOM     15  C03 CBD B1001       2.584  -3.734  -6.465  1.00 27.96     0.027 C 
BRANCH  15  16
ATOM     16  C10 CBD B1001       1.817  -3.686  -5.138  1.00 27.96    -0.044 C 
ATOM     17  C19 CBD B1001       1.345  -4.806  -4.585  1.00 27.96    -0.009 C 
ATOM     18  C14 CBD B1001       1.560  -2.324  -4.465  1.00 27.96     0.026 C 
ENDBRANCH  15  16
ENDBRANCH   1   9
BRANCH   4  19
ATOM     19  C18 CBD B1001       8.147  -1.446  -3.043  1.00 27.96     0.026 C 
BRANCH  19  20
ATOM     20  C20 CBD B1001       7.851  -1.779  -1.557  1.00 27.96     0.005 C 
BRANCH  20  21
ATOM     21  C21 CBD B1001       6.574  -1.028  -1.085  1.00 27.96     0.000 C 
BRANCH  21  22
ATOM     22  C22 CBD B1001       5.533  -2.058  -0.584  1.00 27.96     0.000 C 
ATOM     23  C23 CBD B1001       4.309  -2.047  -1.531  1.00 27.96     0.000 C 
ENDBRANCH  21  22
ENDBRANCH  20  21
ENDBRANCH  19  20
ENDBRANCH   4  19
TORSDOF 6
ENDMDL
MODEL 5
REMARK VINA RESULT:      -0.0      8.278      9.915
REMARK  6 active torsions:
REMARK  status: ('A' for Active; 'I' for Inactive)
REMARK    1  A    between atoms: C03_1  and  C10_8 
REMARK    2  A    between atoms: C04_2  and  C08_6 
REMARK    3  A    between atoms: C15_13  and  C18_16 
REMARK    4  A    between atoms: C18_16  and  C20_18 
REMARK    5  A    between atoms: C20_18  and  C21_19 
REMARK    6  A    between atoms: C21_19  and  C22_20 
ROOT
ATOM      1  C08 CBD B1001      -3.625  -0.475   2.926  1.00 27.96     0.033 A 
ATOM      2  C11 CBD B1001      -3.871  -1.254   4.051  1.00 27.96     0.129 A 
ATOM      3  C12 CBD B1001      -4.155  -0.871   1.689  1.00 27.96     0.129 A 
ATOM      4  C15 CBD B1001      -5.097  -2.848   2.735  1.00 27.96    -0.018 A 
ATOM      5  C16 CBD B1001      -4.587  -2.443   3.962  1.00 27.96     0.023 A 
ATOM      6  C17 CBD B1001      -4.879  -2.066   1.599  1.00 27.96     0.023 A 
ATOM      7  O01 CBD B1001      -3.348  -0.833   5.282  1.00 27.96    -0.190 OA
ATOM      8  O02 CBD B1001      -3.961  -0.116   0.522  1.00 27.96    -0.190 OA
ENDROOT
BRANCH   1   9
ATOM      9  C04 CBD B1001      -2.839   0.827   3.210  1.00 27.96     0.051 C 
ATOM     10  C07 CBD B1001      -3.879   1.923   3.117  1.00 27.96    -0.030 C 
ATOM     11  C09 CBD B1001      -3.536   3.058   3.673  1.00 27.96    -0.048 C 
ATOM     12  C06 CBD B1001      -2.139   3.633   3.427  1.00 27.96     0.022 C 
ATOM     13  C13 CBD B1001      -4.211   3.392   5.000  1.00 27.96     0.026 C 
ATOM     14  C05 CBD B1001      -1.105   2.600   2.930  1.00 27.96     0.009 C 
ATOM     15  C03 CBD B1001      -1.684   1.309   2.323  1.00 27.96     0.027 C 
BRANCH  15  16
ATOM     16  C10 CBD B1001      -0.507   0.331   2.233  1.00 27.96    -0.044 C 
ATOM     17  C19 CBD B1001       0.413   0.284   3.197  1.00 27.96    -0.009 C 
ATOM     18  C14 CBD B1001      -0.375  -0.575   0.992  1.00 27.96     0.026 C 
ENDBRANCH  15  16
ENDBRANCH   1   9
BRANCH   4  19
ATOM     19  C18 CBD B1001      -5.894  -4.174   2.658  1.00 27.96     0.026 C 
BRANCH  19  20
ATOM     20  C20 CBD B1001      -4.974  -5.340   3.108  1.00 27.96     0.005 C 
BRANCH  20  21
ATOM     21  C21 CBD B1001      -3.855  -5.576   2.053  1.00 27.96     0.000 C 
BRANCH  21  22
ATOM     22  C22 CBD B1001      -2.473  -5.421   2.733  1.00 27.96     0.000 C 
ATOM     23  C23 CBD B1001      -1.755  -4.179   2.150  1.00 27.96     0.000 C 
ENDBRANCH  21  22
ENDBRANCH  20  21
ENDBRANCH  19  20
ENDBRANCH   4  19
TORSDOF 6
ENDMDL
MODEL 6
REMARK VINA RESULT:       0.0      7.117      8.540
REMARK  6 active torsions:
REMARK  status: ('A' for Active; 'I' for Inactive)
REMARK    1  A    between atoms: C03_1  and  C10_8 
REMARK    2  A    between atoms: C04_2  and  C08_6 
REMARK    3  A    between atoms: C15_13  and  C18_16 
REMARK    4  A    between atoms: C18_16  and  C20_18 
REMARK    5  A    between atoms: C20_18  and  C21_19 
REMARK    6  A    between atoms: C21_19  and  C22_20 
ROOT
ATOM      1  C08 CBD B1001      -2.954   0.137   1.467  1.00 27.96     0.033 A 
ATOM      2  C11 CBD B1001      -2.968  -1.009   2.253  1.00 27.96     0.129 A 
ATOM      3  C12 CBD B1001      -2.999   0.011   0.071  1.00 27.96     0.129 A 
ATOM      4  C15 CBD B1001      -3.001  -2.406   0.298  1.00 27.96    -0.018 A 
ATOM      5  C16 CBD B1001      -2.975  -2.276   1.681  1.00 27.96     0.023 A 
ATOM      6  C17 CBD B1001      -3.009  -1.264  -0.507  1.00 27.96     0.023 A 
ATOM      7  O01 CBD B1001      -2.941  -0.863   3.648  1.00 27.96    -0.190 OA
ATOM      8  O02 CBD B1001      -3.009   1.129  -0.776  1.00 27.96    -0.190 OA
ENDROOT
BRANCH   1   9
ATOM      9  C04 CBD B1001      -2.976   1.461   2.267  1.00 27.96     0.051 C 
ATOM     10  C07 CBD B1001      -4.389   1.977   2.100  1.00 27.96    -0.030 C 
ATOM     11  C09 CBD B1001      -4.754   2.882   2.974  1.00 27.96    -0.048 C 
ATOM     12  C06 CBD B1001      -3.806   4.035   3.314  1.00 27.96     0.022 C 
ATOM     13  C13 CBD B1001      -5.719   2.421   4.062  1.00 27.96     0.026 C 
ATOM     14  C05 CBD B1001      -2.329   3.773   2.949  1.00 27.96     0.009 C 
ATOM     15  C03 CBD B1001      -2.081   2.657   1.918  1.00 27.96     0.027 C 
BRANCH  15  16
ATOM     16  C10 CBD B1001      -0.578   2.359   1.985  1.00 27.96    -0.044 C 
ATOM     17  C19 CBD B1001       0.066   2.372   3.154  1.00 27.96    -0.009 C 
ATOM     18  C14 CBD B1001       0.193   2.084   0.680  1.00 27.96     0.026 C 
ENDBRANCH  15  16
ENDBRANCH   1   9
BRANCH   4  19
ATOM     19  C18 CBD B1001      -3.010  -3.826  -0.320  1.00 27.96     0.026 C 
BRANCH  19  20
ATOM     20  C20 CBD B1001      -1.725  -4.575   0.122  1.00 27.96     0.005 C 
BRANCH  20  21
ATOM     21  C21 CBD B1001      -0.476  -3.939  -0.552  1.00 27.96     0.000 C 
BRANCH  21  22
ATOM     22  C22 CBD B1001       0.510  -3.466   0.543  1.00 27.96     0.000 C 
ATOM     23  C23 CBD B1001       0.605  -1.921   0.509  1.00 27.96     0.000 C 
ENDBRANCH  21  22
ENDBRANCH  20  21
ENDBRANCH  19  20
ENDBRANCH   4  19
TORSDOF 6
ENDMDL
MODEL 7
REMARK VINA RESULT:       0.0      8.547     10.157
REMARK  6 active torsions:
REMARK  status: ('A' for Active; 'I' for Inactive)
REMARK    1  A    between atoms: C03_1  and  C10_8 
REMARK    2  A    between atoms: C04_2  and  C08_6 
REMARK    3  A    between atoms: C15_13  and  C18_16 
REMARK    4  A    between atoms: C18_16  and  C20_18 
REMARK    5  A    between atoms: C20_18  and  C21_19 
REMARK    6  A    between atoms: C21_19  and  C22_20 
ROOT
ATOM      1  C08 CBD B1001      -3.291   3.038  -2.473  1.00 27.96     0.033 A 
ATOM      2  C11 CBD B1001      -3.842   3.373  -3.704  1.00 27.96     0.129 A 
ATOM      3  C12 CBD B1001      -2.004   2.484  -2.426  1.00 27.96     0.129 A 
ATOM      4  C15 CBD B1001      -1.894   2.555  -4.850  1.00 27.96    -0.018 A 
ATOM      5  C16 CBD B1001      -3.162   3.122  -4.891  1.00 27.96     0.023 A 
ATOM      6  C17 CBD B1001      -1.317   2.233  -3.620  1.00 27.96     0.023 A 
ATOM      7  O01 CBD B1001      -5.123   3.944  -3.730  1.00 27.96    -0.190 OA
ATOM      8  O02 CBD B1001      -1.385   2.145  -1.214  1.00 27.96    -0.190 OA
ENDROOT
BRANCH   1   9
ATOM      9  C04 CBD B1001      -4.170   3.414  -1.256  1.00 27.96     0.051 C 
ATOM     10  C07 CBD B1001      -3.489   4.628  -0.661  1.00 27.96    -0.030 C 
ATOM     11  C09 CBD B1001      -4.236   5.340   0.146  1.00 27.96    -0.048 C 
ATOM     12  C06 CBD B1001      -5.091   4.640   1.205  1.00 27.96     0.022 C 
ATOM     13  C13 CBD B1001      -4.743   6.671  -0.401  1.00 27.96     0.026 C 
ATOM     14  C05 CBD B1001      -5.355   3.145   0.923  1.00 27.96     0.009 C 
ATOM     15  C03 CBD B1001      -4.391   2.469  -0.069  1.00 27.96     0.027 C 
BRANCH  15  16
ATOM     16  C10 CBD B1001      -5.049   1.135  -0.439  1.00 27.96    -0.044 C 
ATOM     17  C19 CBD B1001      -6.371   1.050  -0.598  1.00 27.96    -0.009 C 
ATOM     18  C14 CBD B1001      -4.170  -0.122  -0.588  1.00 27.96     0.026 C 
ENDBRANCH  15  16
ENDBRANCH   1   9
BRANCH   4  19
ATOM     19  C18 CBD B1001      -1.153   2.284  -6.183  1.00 27.96     0.026 C 
BRANCH  19  20
ATOM     20  C20 CBD B1001      -1.997   1.303  -7.038  1.00 27.96     0.005 C 
BRANCH  20  21
ATOM     21  C21 CBD B1001      -2.004  -0.108  -6.383  1.00 27.96     0.000 C 
BRANCH  21  22
ATOM     22  C22 CBD B1001      -3.464  -0.529  -6.091  1.00 27.96     0.000 C 
ATOM     23  C23 CBD B1001      -3.673  -0.613  -4.559  1.00 27.96     0.000 C 
ENDBRANCH  21  22
ENDBRANCH  20  21
ENDBRANCH  19  20
ENDBRANCH   4  19
TORSDOF 6
ENDMDL
MODEL 8
REMARK VINA RESULT:       0.0      6.320      7.482
REMARK  6 active torsions:
REMARK  status: ('A' for Active; 'I' for Inactive)
REMARK    1  A    between atoms: C03_1  and  C10_8 
REMARK    2  A    between atoms: C04_2  and  C08_6 
REMARK    3  A    between atoms: C15_13  and  C18_16 
REMARK    4  A    between atoms: C18_16  and  C20_18 
REMARK    5  A    between atoms: C20_18  and  C21_19 
REMARK    6  A    between atoms: C21_19  and  C22_20 
ROOT
ATOM      1  C08 CBD B1001       1.148  -1.353   4.780  1.00 27.96     0.033 A 
ATOM      2  C11 CBD B1001       0.072  -2.159   5.131  1.00 27.96     0.129 A 
ATOM      3  C12 CBD B1001       1.073  -0.579   3.613  1.00 27.96     0.129 A 
ATOM      4  C15 CBD B1001      -1.125  -1.500   3.153  1.00 27.96    -0.018 A 
ATOM      5  C16 CBD B1001      -1.055  -2.251   4.320  1.00 27.96     0.023 A 
ATOM      6  C17 CBD B1001      -0.061  -0.668   2.797  1.00 27.96     0.023 A 
ATOM      7  O01 CBD B1001       0.157  -2.912   6.311  1.00 27.96    -0.190 OA
ATOM      8  O02 CBD B1001       2.117   0.271   3.216  1.00 27.96    -0.190 OA
ENDROOT
BRANCH   1   9
ATOM      9  C04 CBD B1001       2.304  -1.347   5.808  1.00 27.96     0.051 C 
ATOM     10  C07 CBD B1001       2.181  -0.010   6.506  1.00 27.96    -0.030 C 
ATOM     11  C09 CBD B1001       2.809   0.076   7.652  1.00 27.96    -0.048 C 
ATOM     12  C06 CBD B1001       4.239  -0.455   7.775  1.00 27.96     0.022 C 
ATOM     13  C13 CBD B1001       1.938   0.048   8.904  1.00 27.96     0.026 C 
ATOM     14  C05 CBD B1001       4.642  -1.460   6.675  1.00 27.96     0.009 C 
ATOM     15  C03 CBD B1001       3.779  -1.439   5.399  1.00 27.96     0.027 C 
BRANCH  15  16
ATOM     16  C10 CBD B1001       4.143  -2.717   4.634  1.00 27.96    -0.044 C 
ATOM     17  C19 CBD B1001       4.378  -3.856   5.287  1.00 27.96    -0.009 C 
ATOM     18  C14 CBD B1001       4.275  -2.663   3.100  1.00 27.96     0.026 C 
ENDBRANCH  15  16
ENDBRANCH   1   9
BRANCH   4  19
ATOM     19  C18 CBD B1001      -2.389  -1.615   2.266  1.00 27.96     0.026 C 
BRANCH  19  20
ATOM     20  C20 CBD B1001      -2.542  -3.087   1.797  1.00 27.96     0.005 C 
BRANCH  20  21
ATOM     21  C21 CBD B1001      -1.410  -3.450   0.794  1.00 27.96     0.000 C 
BRANCH  21  22
ATOM     22  C22 CBD B1001      -0.611  -4.656   1.341  1.00 27.96     0.000 C 
ATOM     23  C23 CBD B1001       0.830  -4.200   1.680  1.00 27.96     0.000 C 
ENDBRANCH  21  22
ENDBRANCH  20  21
ENDBRANCH  19  20
ENDBRANCH   4  19
TORSDOF 6
ENDMDL
MODEL 9
REMARK VINA RESULT:       0.0      8.299     11.860
REMARK  6 active torsions:
REMARK  status: ('A' for Active; 'I' for Inactive)
REMARK    1  A    between atoms: C03_1  and  C10_8 
REMARK    2  A    between atoms: C04_2  and  C08_6 
REMARK    3  A    between atoms: C15_13  and  C18_16 
REMARK    4  A    between atoms: C18_16  and  C20_18 
REMARK    5  A    between atoms: C20_18  and  C21_19 
REMARK    6  A    between atoms: C21_19  and  C22_20 
ROOT
ATOM      1  C08 CBD B1001       1.582  -5.621  -0.670  1.00 27.96     0.033 A 
ATOM      2  C11 CBD B1001       2.429  -5.168   0.334  1.00 27.96     0.129 A 
ATOM      3  C12 CBD B1001       0.316  -5.036  -0.815  1.00 27.96     0.129 A 
ATOM      4  C15 CBD B1001       0.764  -3.614   1.101  1.00 27.96    -0.018 A 
ATOM      5  C16 CBD B1001       2.025  -4.183   1.229  1.00 27.96     0.023 A 
ATOM      6  C17 CBD B1001      -0.092  -4.042   0.083  1.00 27.96     0.023 A 
ATOM      7  O01 CBD B1001       3.699  -5.752   0.452  1.00 27.96    -0.190 OA
ATOM      8  O02 CBD B1001      -0.576  -5.434  -1.822  1.00 27.96    -0.190 OA
ENDROOT
BRANCH   1   9
ATOM      9  C04 CBD B1001       2.203  -6.698  -1.592  1.00 27.96     0.051 C 
ATOM     10  C07 CBD B1001       2.506  -5.961  -2.879  1.00 27.96    -0.030 C 
ATOM     11  C09 CBD B1001       3.360  -6.562  -3.671  1.00 27.96    -0.048 C 
ATOM     12  C06 CBD B1001       3.222  -8.062  -3.939  1.00 27.96     0.022 C 
ATOM     13  C13 CBD B1001       4.762  -5.963  -3.731  1.00 27.96     0.026 C 
ATOM     14  C05 CBD B1001       2.377  -8.820  -2.893  1.00 27.96     0.009 C 
ATOM     15  C03 CBD B1001       1.440  -7.953  -2.032  1.00 27.96     0.027 C 
BRANCH  15  16
ATOM     16  C10 CBD B1001       0.990  -8.855  -0.876  1.00 27.96    -0.044 C 
ATOM     17  C19 CBD B1001       1.841  -9.715  -0.314  1.00 27.96    -0.009 C 
ATOM     18  C14 CBD B1001      -0.472  -8.786  -0.393  1.00 27.96     0.026 C 
ENDBRANCH  15  16
ENDBRANCH   1   9
BRANCH   4  19
ATOM     19  C18 CBD B1001       0.333  -2.518   2.106  1.00 27.96     0.026 C 
BRANCH  19  20
ATOM     20  C20 CBD B1001       0.354  -3.112   3.539  1.00 27.96     0.005 C 
BRANCH  20  21
ATOM     21  C21 CBD B1001      -0.783  -4.161   3.701  1.00 27.96     0.000 C 
BRANCH  21  22
ATOM     22  C22 CBD B1001      -0.168  -5.523   4.100  1.00 27.96     0.000 C 
ATOM     23  C23 CBD B1001      -0.385  -6.537   2.950  1.00 27.96     0.000 C 
ENDBRANCH  21  22
ENDBRANCH  20  21
ENDBRANCH  19  20
ENDBRANCH   4  19
TORSDOF 6
ENDMDL
