MODEL 1
REMARK VINA RESULT:      -7.5      0.000      0.000
REMARK  6 active torsions:
REMARK  status: ('A' for Active; 'I' for Inactive)
REMARK    1  A    between atoms: C03_1  and  C10_8 
REMARK    2  A    between atoms: C04_2  and  C08_6 
REMARK    3  A    between atoms: C15_13  and  C18_16 
REMARK    4  A    between atoms: C18_16  and  C20_18 
REMARK    5  A    between atoms: C20_18  and  C21_19 
REMARK    6  A    between atoms: C21_19  and  C22_20 
ROOT
ATOM      1  C08 CBD B1001     159.438 139.765 171.963  1.00 27.96     0.033 A 
ATOM      2  C11 CBD B1001     160.552 139.155 171.398  1.00 27.96     0.129 A 
ATOM      3  C12 CBD B1001     158.378 138.969 172.419  1.00 27.96     0.129 A 
ATOM      4  C15 CBD B1001     159.554 136.985 171.664  1.00 27.96    -0.018 A 
ATOM      5  C16 CBD B1001     160.611 137.775 171.231  1.00 27.96     0.023 A 
ATOM      6  C17 CBD B1001     158.437 137.580 172.255  1.00 27.96     0.023 A 
ATOM      7  O01 CBD B1001     161.610 139.965 170.964  1.00 27.96    -0.190 OA
ATOM      8  O02 CBD B1001     157.237 139.524 173.018  1.00 27.96    -0.190 OA
ENDROOT
BRANCH   1   9
ATOM      9  C04 CBD B1001     159.552 141.302 172.099  1.00 27.96     0.051 C 
ATOM     10  C07 CBD B1001     159.809 141.531 173.573  1.00 27.96    -0.030 C 
ATOM     11  C09 CBD B1001     160.301 142.708 173.872  1.00 27.96    -0.048 C 
ATOM     12  C06 CBD B1001     159.701 143.965 173.238  1.00 27.96     0.022 C 
ATOM     13  C13 CBD B1001     161.779 142.747 174.249  1.00 27.96     0.026 C 
ATOM     14  C05 CBD B1001     158.884 143.702 171.955  1.00 27.96     0.009 C 
ATOM     15  C03 CBD B1001     158.402 142.254 171.751  1.00 27.96     0.027 C 
BRANCH  15  16
ATOM     16  C10 CBD B1001     157.937 142.175 170.292  1.00 27.96    -0.044 C 
ATOM     17  C19 CBD B1001     158.694 142.667 169.310  1.00 27.96    -0.009 C 
ATOM     18  C14 CBD B1001     156.563 141.553 169.973  1.00 27.96     0.026 C 
ENDBRANCH  15  16
ENDBRANCH   1   9
BRANCH   4  19
ATOM     19  C18 CBD B1001     159.640 135.450 171.471  1.00 27.96     0.026 C 
BRANCH  19  20
ATOM     20  C20 CBD B1001     159.979 135.148 169.987  1.00 27.96     0.005 C 
BRANCH  20  21
ATOM     21  C21 CBD B1001     158.804 134.382 169.315  1.00 27.96     0.000 C 
BRANCH  21  22
ATOM     22  C22 CBD B1001     157.680 134.159 170.354  1.00 27.96     0.000 C 
ATOM     23  C23 CBD B1001     156.320 134.552 169.726  1.00 27.96     0.000 C 
ENDBRANCH  21  22
ENDBRANCH  20  21
ENDBRANCH  19  20
ENDBRANCH   4  19
TORSDOF 6
ENDMDL
MODEL 2
REMARK VINA RESULT:      -7.5      1.149      3.357
REMARK  6 active torsions:
REMARK  status: ('A' for Active; 'I' for Inactive)
REMARK    1  A    between atoms: C03_1  and  C10_8 
REMARK    2  A    between atoms: C04_2  and  C08_6 
REMARK    3  A    between atoms: C15_13  and  C18_16 
REMARK    4  A    between atoms: C18_16  and  C20_18 
REMARK    5  A    between atoms: C20_18  and  C21_19 
REMARK    6  A    between atoms: C21_19  and  C22_20 
ROOT
ATOM      1  C08 CBD B1001     159.363 140.073 172.522  1.00 27.96     0.033 A 
ATOM      2  C11 CBD B1001     158.216 139.308 172.700  1.00 27.96     0.129 A 
ATOM      3  C12 CBD B1001     160.593 139.428 172.326  1.00 27.96     0.129 A 
ATOM      4  C15 CBD B1001     159.495 137.277 172.565  1.00 27.96    -0.018 A 
ATOM      5  C16 CBD B1001     158.275 137.919 172.739  1.00 27.96     0.023 A 
ATOM      6  C17 CBD B1001     160.653 138.030 172.362  1.00 27.96     0.023 A 
ATOM      7  O01 CBD B1001     156.993 139.969 172.876  1.00 27.96    -0.190 OA
ATOM      8  O02 CBD B1001     161.782 140.144 172.120  1.00 27.96    -0.190 OA
ENDROOT
BRANCH   1   9
ATOM      9  C04 CBD B1001     159.112 141.599 172.475  1.00 27.96     0.051 C 
ATOM     10  C07 CBD B1001     159.388 141.981 171.037  1.00 27.96    -0.030 C 
ATOM     11  C09 CBD B1001     158.895 143.138 170.669  1.00 27.96    -0.048 C 
ATOM     12  C06 CBD B1001     159.055 144.356 171.581  1.00 27.96     0.022 C 
ATOM     13  C13 CBD B1001     157.666 143.093 169.766  1.00 27.96     0.026 C 
ATOM     14  C05 CBD B1001     159.371 144.013 173.052  1.00 27.96     0.009 C 
ATOM     15  C03 CBD B1001     159.925 142.599 173.307  1.00 27.96     0.027 C 
BRANCH  15  16
ATOM     16  C10 CBD B1001     159.828 142.384 174.822  1.00 27.96    -0.044 C 
ATOM     17  C19 CBD B1001     160.824 141.802 175.491  1.00 27.96    -0.009 C 
ATOM     18  C14 CBD B1001     158.546 142.814 175.562  1.00 27.96     0.026 C 
ENDBRANCH  15  16
ENDBRANCH   1   9
BRANCH   4  19
ATOM     19  C18 CBD B1001     159.538 135.730 172.610  1.00 27.96     0.026 C 
BRANCH  19  20
ATOM     20  C20 CBD B1001     160.199 135.207 171.307  1.00 27.96     0.005 C 
BRANCH  20  21
ATOM     21  C21 CBD B1001     159.215 135.354 170.111  1.00 27.96     0.000 C 
BRANCH  21  22
ATOM     22  C22 CBD B1001     159.461 134.207 169.103  1.00 27.96     0.000 C 
ATOM     23  C23 CBD B1001     158.105 133.744 168.516  1.00 27.96     0.000 C 
ENDBRANCH  21  22
ENDBRANCH  20  21
ENDBRANCH  19  20
ENDBRANCH   4  19
TORSDOF 6
ENDMDL
MODEL 3
REMARK VINA RESULT:      -7.3      1.853      3.754
REMARK  6 active torsions:
REMARK  status: ('A' for Active; 'I' for Inactive)
REMARK    1  A    between atoms: C03_1  and  C10_8 
REMARK    2  A    between atoms: C04_2  and  C08_6 
REMARK    3  A    between atoms: C15_13  and  C18_16 
REMARK    4  A    between atoms: C18_16  and  C20_18 
REMARK    5  A    between atoms: C20_18  and  C21_19 
REMARK    6  A    between atoms: C21_19  and  C22_20 
ROOT
ATOM      1  C08 CBD B1001     159.350 139.887 172.466  1.00 27.96     0.033 A 
ATOM      2  C11 CBD B1001     158.203 139.146 172.722  1.00 27.96     0.129 A 
ATOM      3  C12 CBD B1001     160.540 139.219 172.142  1.00 27.96     0.129 A 
ATOM      4  C15 CBD B1001     159.407 137.089 172.412  1.00 27.96    -0.018 A 
ATOM      5  C16 CBD B1001     158.226 137.755 172.713  1.00 27.96     0.023 A 
ATOM      6  C17 CBD B1001     160.564 137.819 172.130  1.00 27.96     0.023 A 
ATOM      7  O01 CBD B1001     157.018 139.831 173.025  1.00 27.96    -0.190 OA
ATOM      8  O02 CBD B1001     161.726 139.911 171.852  1.00 27.96    -0.190 OA
ENDROOT
BRANCH   1   9
ATOM      9  C04 CBD B1001     159.139 141.420 172.487  1.00 27.96     0.051 C 
ATOM     10  C07 CBD B1001     159.396 141.855 171.061  1.00 27.96    -0.030 C 
ATOM     11  C09 CBD B1001     158.927 143.039 170.751  1.00 27.96    -0.048 C 
ATOM     12  C06 CBD B1001     159.137 144.213 171.710  1.00 27.96     0.022 C 
ATOM     13  C13 CBD B1001     157.681 143.062 169.871  1.00 27.96     0.026 C 
ATOM     14  C05 CBD B1001     159.471 143.800 173.159  1.00 27.96     0.009 C 
ATOM     15  C03 CBD B1001     159.992 142.363 173.344  1.00 27.96     0.027 C 
BRANCH  15  16
ATOM     16  C10 CBD B1001     159.918 142.087 174.850  1.00 27.96    -0.044 C 
ATOM     17  C19 CBD B1001     160.949 141.534 175.491  1.00 27.96    -0.009 C 
ATOM     18  C14 CBD B1001     158.621 142.420 175.613  1.00 27.96     0.026 C 
ENDBRANCH  15  16
ENDBRANCH   1   9
BRANCH   4  19
ATOM     19  C18 CBD B1001     159.412 135.540 172.406  1.00 27.96     0.026 C 
BRANCH  19  20
ATOM     20  C20 CBD B1001     157.990 135.032 172.763  1.00 27.96     0.005 C 
BRANCH  20  21
ATOM     21  C21 CBD B1001     158.082 133.830 173.746  1.00 27.96     0.000 C 
BRANCH  21  22
ATOM     22  C22 CBD B1001     156.676 133.212 173.931  1.00 27.96     0.000 C 
ATOM     23  C23 CBD B1001     156.232 133.388 175.403  1.00 27.96     0.000 C 
ENDBRANCH  21  22
ENDBRANCH  20  21
ENDBRANCH  19  20
ENDBRANCH   4  19
TORSDOF 6
ENDMDL
MODEL 4
REMARK VINA RESULT:      -6.9      0.785      2.099
REMARK  6 active torsions:
REMARK  status: ('A' for Active; 'I' for Inactive)
REMARK    1  A    between atoms: C03_1  and  C10_8 
REMARK    2  A    between atoms: C04_2  and  C08_6 
REMARK    3  A    between atoms: C15_13  and  C18_16 
REMARK    4  A    between atoms: C18_16  and  C20_18 
REMARK    5  A    between atoms: C20_18  and  C21_19 
REMARK    6  A    between atoms: C21_19  and  C22_20 
ROOT
ATOM      1  C08 CBD B1001     159.569 140.198 172.249  1.00 27.96     0.033 A 
ATOM      2  C11 CBD B1001     158.396 139.646 172.748  1.00 27.96     0.129 A 
ATOM      3  C12 CBD B1001     160.566 139.350 171.746  1.00 27.96     0.129 A 
ATOM      4  C15 CBD B1001     159.209 137.424 172.327  1.00 27.96    -0.018 A 
ATOM      5  C16 CBD B1001     158.215 138.268 172.806  1.00 27.96     0.023 A 
ATOM      6  C17 CBD B1001     160.385 137.963 171.801  1.00 27.96     0.023 A 
ATOM      7  O01 CBD B1001     157.402 140.511 173.229  1.00 27.96    -0.190 OA
ATOM      8  O02 CBD B1001     161.764 139.847 171.209  1.00 27.96    -0.190 OA
ENDROOT
BRANCH   1   9
ATOM      9  C04 CBD B1001     159.590 141.746 172.231  1.00 27.96     0.051 C 
ATOM     10  C07 CBD B1001     159.729 142.136 173.687  1.00 27.96    -0.030 C 
ATOM     11  C09 CBD B1001     160.134 143.365 173.893  1.00 27.96    -0.048 C 
ATOM     12  C06 CBD B1001     159.514 144.513 173.094  1.00 27.96     0.022 C 
ATOM     13  C13 CBD B1001     161.577 143.532 174.359  1.00 27.96     0.026 C 
ATOM     14  C05 CBD B1001     158.805 144.074 171.795  1.00 27.96     0.009 C 
ATOM     15  C03 CBD B1001     158.417 142.586 171.712  1.00 27.96     0.027 C 
BRANCH  15  16
ATOM     16  C10 CBD B1001     158.062 142.333 170.243  1.00 27.96    -0.044 C 
ATOM     17  C19 CBD B1001     158.837 142.806 169.265  1.00 27.96    -0.009 C 
ATOM     18  C14 CBD B1001     156.775 141.556 169.903  1.00 27.96     0.026 C 
ENDBRANCH  15  16
ENDBRANCH   1   9
BRANCH   4  19
ATOM     19  C18 CBD B1001     158.987 135.893 172.399  1.00 27.96     0.026 C 
BRANCH  19  20
ATOM     20  C20 CBD B1001     157.554 135.568 171.899  1.00 27.96     0.005 C 
BRANCH  20  21
ATOM     21  C21 CBD B1001     157.617 134.865 170.513  1.00 27.96     0.000 C 
BRANCH  21  22
ATOM     22  C22 CBD B1001     159.090 134.788 170.046  1.00 27.96     0.000 C 
ATOM     23  C23 CBD B1001     159.152 134.089 168.667  1.00 27.96     0.000 C 
ENDBRANCH  21  22
ENDBRANCH  20  21
ENDBRANCH  19  20
ENDBRANCH   4  19
TORSDOF 6
ENDMDL
MODEL 5
REMARK VINA RESULT:      -6.8     29.176     32.566
REMARK  6 active torsions:
REMARK  status: ('A' for Active; 'I' for Inactive)
REMARK    1  A    between atoms: C03_1  and  C10_8 
REMARK    2  A    between atoms: C04_2  and  C08_6 
REMARK    3  A    between atoms: C15_13  and  C18_16 
REMARK    4  A    between atoms: C18_16  and  C20_18 
REMARK    5  A    between atoms: C20_18  and  C21_19 
REMARK    6  A    between atoms: C21_19  and  C22_20 
ROOT
ATOM      1  C08 CBD B1001     132.157 156.866 166.894  1.00 27.96     0.033 A 
ATOM      2  C11 CBD B1001     132.575 155.587 166.547  1.00 27.96     0.129 A 
ATOM      3  C12 CBD B1001     133.117 157.838 167.215  1.00 27.96     0.129 A 
ATOM      4  C15 CBD B1001     134.874 156.194 166.895  1.00 27.96    -0.018 A 
ATOM      5  C16 CBD B1001     133.922 155.240 166.560  1.00 27.96     0.023 A 
ATOM      6  C17 CBD B1001     134.473 157.491 167.226  1.00 27.96     0.023 A 
ATOM      7  O01 CBD B1001     131.602 154.635 166.212  1.00 27.96    -0.190 OA
ATOM      8  O02 CBD B1001     132.760 159.152 167.553  1.00 27.96    -0.190 OA
ENDROOT
BRANCH   1   9
ATOM      9  C04 CBD B1001     130.629 157.088 166.797  1.00 27.96     0.051 C 
ATOM     10  C07 CBD B1001     130.469 158.138 165.719  1.00 27.96    -0.030 C 
ATOM     11  C09 CBD B1001     129.267 158.223 165.205  1.00 27.96    -0.048 C 
ATOM     12  C06 CBD B1001     128.045 158.220 166.127  1.00 27.96     0.022 C 
ATOM     13  C13 CBD B1001     129.090 157.653 163.801  1.00 27.96     0.026 C 
ATOM     14  C05 CBD B1001     128.313 157.650 167.536  1.00 27.96     0.009 C 
ATOM     15  C03 CBD B1001     129.789 157.604 167.972  1.00 27.96     0.027 C 
BRANCH  15  16
ATOM     16  C10 CBD B1001     129.824 156.706 169.214  1.00 27.96    -0.044 C 
ATOM     17  C19 CBD B1001     130.359 157.146 170.355  1.00 27.96    -0.009 C 
ATOM     18  C14 CBD B1001     129.271 155.271 169.122  1.00 27.96     0.026 C 
ENDBRANCH  15  16
ENDBRANCH   1   9
BRANCH   4  19
ATOM     19  C18 CBD B1001     136.369 155.788 166.903  1.00 27.96     0.026 C 
BRANCH  19  20
ATOM     20  C20 CBD B1001     136.548 154.545 167.814  1.00 27.96     0.005 C 
BRANCH  20  21
ATOM     21  C21 CBD B1001     136.114 154.882 169.270  1.00 27.96     0.000 C 
BRANCH  21  22
ATOM     22  C22 CBD B1001     135.196 153.757 169.802  1.00 27.96     0.000 C 
ATOM     23  C23 CBD B1001     133.759 154.308 169.970  1.00 27.96     0.000 C 
ENDBRANCH  21  22
ENDBRANCH  20  21
ENDBRANCH  19  20
ENDBRANCH   4  19
TORSDOF 6
ENDMDL
MODEL 6
REMARK VINA RESULT:      -6.8     22.715     24.741
REMARK  6 active torsions:
REMARK  status: ('A' for Active; 'I' for Inactive)
REMARK    1  A    between atoms: C03_1  and  C10_8 
REMARK    2  A    between atoms: C04_2  and  C08_6 
REMARK    3  A    between atoms: C15_13  and  C18_16 
REMARK    4  A    between atoms: C18_16  and  C20_18 
REMARK    5  A    between atoms: C20_18  and  C21_19 
REMARK    6  A    between atoms: C21_19  and  C22_20 
ROOT
ATOM      1  C08 CBD B1001     137.413 140.876 182.021  1.00 27.96     0.033 A 
ATOM      2  C11 CBD B1001     138.720 141.166 181.647  1.00 27.96     0.129 A 
ATOM      3  C12 CBD B1001     136.359 141.595 181.439  1.00 27.96     0.129 A 
ATOM      4  C15 CBD B1001     137.963 142.915 180.183  1.00 27.96    -0.018 A 
ATOM      5  C16 CBD B1001     139.004 142.188 180.747  1.00 27.96     0.023 A 
ATOM      6  C17 CBD B1001     136.642 142.622 180.531  1.00 27.96     0.023 A 
ATOM      7  O01 CBD B1001     139.761 140.424 182.225  1.00 27.96    -0.190 OA
ATOM      8  O02 CBD B1001     135.018 141.335 181.758  1.00 27.96    -0.190 OA
ENDROOT
BRANCH   1   9
ATOM      9  C04 CBD B1001     137.278 139.691 183.007  1.00 27.96     0.051 C 
ATOM     10  C07 CBD B1001     136.703 138.569 182.170  1.00 27.96    -0.030 C 
ATOM     11  C09 CBD B1001     136.841 137.371 182.683  1.00 27.96    -0.048 C 
ATOM     12  C06 CBD B1001     136.532 137.140 184.164  1.00 27.96     0.022 C 
ATOM     13  C13 CBD B1001     137.891 136.475 182.035  1.00 27.96     0.026 C 
ATOM     14  C05 CBD B1001     136.536 138.422 185.023  1.00 27.96     0.009 C 
ATOM     15  C03 CBD B1001     136.385 139.746 184.253  1.00 27.96     0.027 C 
BRANCH  15  16
ATOM     16  C10 CBD B1001     136.761 140.849 185.249  1.00 27.96    -0.044 C 
ATOM     17  C19 CBD B1001     138.022 140.993 185.660  1.00 27.96    -0.009 C 
ATOM     18  C14 CBD B1001     135.656 141.769 185.805  1.00 27.96     0.026 C 
ENDBRANCH  15  16
ENDBRANCH   1   9
BRANCH   4  19
ATOM     19  C18 CBD B1001     138.299 144.048 179.182  1.00 27.96     0.026 C 
BRANCH  19  20
ATOM     20  C20 CBD B1001     138.917 143.422 177.904  1.00 27.96     0.005 C 
BRANCH  20  21
ATOM     21  C21 CBD B1001     137.792 143.007 176.913  1.00 27.96     0.000 C 
BRANCH  21  22
ATOM     22  C22 CBD B1001     137.415 141.527 177.160  1.00 27.96     0.000 C 
ATOM     23  C23 CBD B1001     135.877 141.371 177.072  1.00 27.96     0.000 C 
ENDBRANCH  21  22
ENDBRANCH  20  21
ENDBRANCH  19  20
ENDBRANCH   4  19
TORSDOF 6
ENDMDL
MODEL 7
REMARK VINA RESULT:      -6.8     20.890     24.002
REMARK  6 active torsions:
REMARK  status: ('A' for Active; 'I' for Inactive)
REMARK    1  A    between atoms: C03_1  and  C10_8 
REMARK    2  A    between atoms: C04_2  and  C08_6 
REMARK    3  A    between atoms: C15_13  and  C18_16 
REMARK    4  A    between atoms: C18_16  and  C20_18 
REMARK    5  A    between atoms: C20_18  and  C21_19 
REMARK    6  A    between atoms: C21_19  and  C22_20 
ROOT
ATOM      1  C08 CBD B1001     136.300 145.841 171.543  1.00 27.96     0.033 A 
ATOM      2  C11 CBD B1001     137.137 146.794 172.111  1.00 27.96     0.129 A 
ATOM      3  C12 CBD B1001     136.860 144.680 170.990  1.00 27.96     0.129 A 
ATOM      4  C15 CBD B1001     139.078 145.502 171.531  1.00 27.96    -0.018 A 
ATOM      5  C16 CBD B1001     138.519 146.642 172.095  1.00 27.96     0.023 A 
ATOM      6  C17 CBD B1001     138.251 144.524 170.976  1.00 27.96     0.023 A 
ATOM      7  O01 CBD B1001     136.557 147.939 172.676  1.00 27.96    -0.190 OA
ATOM      8  O02 CBD B1001     136.068 143.671 170.421  1.00 27.96    -0.190 OA
ENDROOT
BRANCH   1   9
ATOM      9  C04 CBD B1001     134.791 146.155 171.675  1.00 27.96     0.051 C 
ATOM     10  C07 CBD B1001     134.350 145.376 172.895  1.00 27.96    -0.030 C 
ATOM     11  C09 CBD B1001     133.214 145.766 173.419  1.00 27.96    -0.048 C 
ATOM     12  C06 CBD B1001     132.016 146.047 172.509  1.00 27.96     0.022 C 
ATOM     13  C13 CBD B1001     133.305 146.549 174.725  1.00 27.96     0.026 C 
ATOM     14  C05 CBD B1001     132.384 146.297 171.031  1.00 27.96     0.009 C 
ATOM     15  C03 CBD B1001     133.769 145.791 170.590  1.00 27.96     0.027 C 
BRANCH  15  16
ATOM     16  C10 CBD B1001     134.035 146.446 169.230  1.00 27.96    -0.044 C 
ATOM     17  C19 CBD B1001     134.341 145.702 168.165  1.00 27.96    -0.009 C 
ATOM     18  C14 CBD B1001     133.983 147.981 169.111  1.00 27.96     0.026 C 
ENDBRANCH  15  16
ENDBRANCH   1   9
BRANCH   4  19
ATOM     19  C18 CBD B1001     140.620 145.351 171.525  1.00 27.96     0.026 C 
BRANCH  19  20
ATOM     20  C20 CBD B1001     141.261 146.719 171.879  1.00 27.96     0.005 C 
BRANCH  20  21
ATOM     21  C21 CBD B1001     142.741 146.757 171.401  1.00 27.96     0.000 C 
BRANCH  21  22
ATOM     22  C22 CBD B1001     142.826 147.529 170.063  1.00 27.96     0.000 C 
ATOM     23  C23 CBD B1001     141.738 148.630 170.041  1.00 27.96     0.000 C 
ENDBRANCH  21  22
ENDBRANCH  20  21
ENDBRANCH  19  20
ENDBRANCH   4  19
TORSDOF 6
ENDMDL
MODEL 8
REMARK VINA RESULT:      -6.7      8.051     11.963
REMARK  6 active torsions:
REMARK  status: ('A' for Active; 'I' for Inactive)
REMARK    1  A    between atoms: C03_1  and  C10_8 
REMARK    2  A    between atoms: C04_2  and  C08_6 
REMARK    3  A    between atoms: C15_13  and  C18_16 
REMARK    4  A    between atoms: C18_16  and  C20_18 
REMARK    5  A    between atoms: C20_18  and  C21_19 
REMARK    6  A    between atoms: C21_19  and  C22_20 
ROOT
ATOM      1  C08 CBD B1001     152.050 132.880 167.503  1.00 27.96     0.033 A 
ATOM      2  C11 CBD B1001     151.537 131.939 168.388  1.00 27.96     0.129 A 
ATOM      3  C12 CBD B1001     151.173 133.759 166.853  1.00 27.96     0.129 A 
ATOM      4  C15 CBD B1001     149.294 132.677 167.944  1.00 27.96    -0.018 A 
ATOM      5  C16 CBD B1001     150.168 131.820 168.601  1.00 27.96     0.023 A 
ATOM      6  C17 CBD B1001     149.794 133.643 167.069  1.00 27.96     0.023 A 
ATOM      7  O01 CBD B1001     152.432 131.080 169.043  1.00 27.96    -0.190 OA
ATOM      8  O02 CBD B1001     151.631 134.745 165.966  1.00 27.96    -0.190 OA
ENDROOT
BRANCH   1   9
ATOM      9  C04 CBD B1001     153.595 132.894 167.410  1.00 27.96     0.051 C 
ATOM     10  C07 CBD B1001     154.004 134.160 168.131  1.00 27.96    -0.030 C 
ATOM     11  C09 CBD B1001     155.260 134.204 168.500  1.00 27.96    -0.048 C 
ATOM     12  C06 CBD B1001     156.355 133.775 167.521  1.00 27.96     0.022 C 
ATOM     13  C13 CBD B1001     155.534 134.014 169.989  1.00 27.96     0.026 C 
ATOM     14  C05 CBD B1001     155.857 132.892 166.357  1.00 27.96     0.009 C 
ATOM     15  C03 CBD B1001     154.345 132.946 166.073  1.00 27.96     0.027 C 
BRANCH  15  16
ATOM     16  C10 CBD B1001     154.057 131.762 165.142  1.00 27.96    -0.044 C 
ATOM     17  C19 CBD B1001     153.113 131.850 164.203  1.00 27.96    -0.009 C 
ATOM     18  C14 CBD B1001     154.844 130.451 165.327  1.00 27.96     0.026 C 
ENDBRANCH  15  16
ENDBRANCH   1   9
BRANCH   4  19
ATOM     19  C18 CBD B1001     147.773 132.530 168.196  1.00 27.96     0.026 C 
BRANCH  19  20
ATOM     20  C20 CBD B1001     147.124 133.939 168.194  1.00 27.96     0.005 C 
BRANCH  20  21
ATOM     21  C21 CBD B1001     146.048 134.032 167.074  1.00 27.96     0.000 C 
BRANCH  21  22
ATOM     22  C22 CBD B1001     145.665 132.605 166.615  1.00 27.96     0.000 C 
ATOM     23  C23 CBD B1001     144.123 132.492 166.533  1.00 27.96     0.000 C 
ENDBRANCH  21  22
ENDBRANCH  20  21
ENDBRANCH  19  20
ENDBRANCH   4  19
TORSDOF 6
ENDMDL
MODEL 9
REMARK VINA RESULT:      -6.6     24.319     26.153
REMARK  6 active torsions:
REMARK  status: ('A' for Active; 'I' for Inactive)
REMARK    1  A    between atoms: C03_1  and  C10_8 
REMARK    2  A    between atoms: C04_2  and  C08_6 
REMARK    3  A    between atoms: C15_13  and  C18_16 
REMARK    4  A    between atoms: C18_16  and  C20_18 
REMARK    5  A    between atoms: C20_18  and  C21_19 
REMARK    6  A    between atoms: C21_19  and  C22_20 
ROOT
ATOM      1  C08 CBD B1001     136.251 141.320 183.525  1.00 27.96     0.033 A 
ATOM      2  C11 CBD B1001     135.999 141.638 182.196  1.00 27.96     0.129 A 
ATOM      3  C12 CBD B1001     137.576 141.296 183.984  1.00 27.96     0.129 A 
ATOM      4  C15 CBD B1001     138.352 141.842 181.750  1.00 27.96    -0.018 A 
ATOM      5  C16 CBD B1001     137.037 141.883 181.303  1.00 27.96     0.023 A 
ATOM      6  C17 CBD B1001     138.622 141.546 183.088  1.00 27.96     0.023 A 
ATOM      7  O01 CBD B1001     134.667 141.675 181.759  1.00 27.96    -0.190 OA
ATOM      8  O02 CBD B1001     137.895 141.003 185.319  1.00 27.96    -0.190 OA
ENDROOT
BRANCH   1   9
ATOM      9  C04 CBD B1001     134.982 141.106 184.383  1.00 27.96     0.051 C 
ATOM     10  C07 CBD B1001     135.033 142.215 185.412  1.00 27.96    -0.030 C 
ATOM     11  C09 CBD B1001     133.895 142.465 186.012  1.00 27.96    -0.048 C 
ATOM     12  C06 CBD B1001     133.037 141.306 186.525  1.00 27.96     0.022 C 
ATOM     13  C13 CBD B1001     133.174 143.741 185.590  1.00 27.96     0.026 C 
ATOM     14  C05 CBD B1001     133.359 139.941 185.879  1.00 27.96     0.009 C 
ATOM     15  C03 CBD B1001     134.735 139.830 185.197  1.00 27.96     0.027 C 
BRANCH  15  16
ATOM     16  C10 CBD B1001     134.677 138.548 184.357  1.00 27.96    -0.044 C 
ATOM     17  C19 CBD B1001     133.861 138.461 183.306  1.00 27.96    -0.009 C 
ATOM     18  C14 CBD B1001     135.546 137.342 184.765  1.00 27.96     0.026 C 
ENDBRANCH  15  16
ENDBRANCH   1   9
BRANCH   4  19
ATOM     19  C18 CBD B1001     139.493 142.120 180.741  1.00 27.96     0.026 C 
BRANCH  19  20
ATOM     20  C20 CBD B1001     139.489 141.008 179.658  1.00 27.96     0.005 C 
BRANCH  20  21
ATOM     21  C21 CBD B1001     139.713 141.631 178.251  1.00 27.96     0.000 C 
BRANCH  21  22
ATOM     22  C22 CBD B1001     138.923 142.957 178.147  1.00 27.96     0.000 C 
ATOM     23  C23 CBD B1001     137.544 142.679 177.501  1.00 27.96     0.000 C 
ENDBRANCH  21  22
ENDBRANCH  20  21
ENDBRANCH  19  20
ENDBRANCH   4  19
TORSDOF 6
ENDMDL
