MODEL 1
REMARK VINA RESULT:       8.2      0.000      0.000
REMARK  6 active torsions:
REMARK  status: ('A' for Active; 'I' for Inactive)
REMARK    1  A    between atoms: C03_1  and  C10_8 
REMARK    2  A    between atoms: C04_2  and  C08_6 
REMARK    3  A    between atoms: C15_13  and  C18_16 
REMARK    4  A    between atoms: C18_16  and  C20_18 
REMARK    5  A    between atoms: C20_18  and  C21_19 
REMARK    6  A    between atoms: C21_19  and  C22_20 
ROOT
ATOM      1  C08 CBD B1001     137.843 135.159 180.635  1.00 27.96     0.033 A 
ATOM      2  C11 CBD B1001     136.763 134.295 180.495  1.00 27.96     0.129 A 
ATOM      3  C12 CBD B1001     138.400 135.750 179.492  1.00 27.96     0.129 A 
ATOM      4  C15 CBD B1001     136.822 134.535 178.104  1.00 27.96    -0.018 A 
ATOM      5  C16 CBD B1001     136.260 133.967 179.240  1.00 27.96     0.023 A 
ATOM      6  C17 CBD B1001     137.893 135.423 178.228  1.00 27.96     0.023 A 
ATOM      7  O01 CBD B1001     136.207 133.727 181.650  1.00 27.96    -0.190 OA
ATOM      8  O02 CBD B1001     139.477 136.647 179.569  1.00 27.96    -0.190 OA
ENDROOT
BRANCH   1   9
ATOM      9  C04 CBD B1001     138.254 135.436 182.100  1.00 27.96     0.051 C 
ATOM     10  C07 CBD B1001     138.700 134.089 182.627  1.00 27.96    -0.030 C 
ATOM     11  C09 CBD B1001     139.429 134.134 183.714  1.00 27.96    -0.048 C 
ATOM     12  C06 CBD B1001     139.011 135.043 184.872  1.00 27.96     0.022 C 
ATOM     13  C13 CBD B1001     140.920 133.858 183.540  1.00 27.96     0.026 C 
ATOM     14  C05 CBD B1001     138.031 136.168 184.475  1.00 27.96     0.009 C 
ATOM     15  C03 CBD B1001     137.270 135.960 183.153  1.00 27.96     0.027 C 
BRANCH  15  16
ATOM     16  C10 CBD B1001     136.651 137.321 182.815  1.00 27.96    -0.044 C 
ATOM     17  C19 CBD B1001     136.218 138.131 183.783  1.00 27.96    -0.009 C 
ATOM     18  C14 CBD B1001     136.497 137.731 181.337  1.00 27.96     0.026 C 
ENDBRANCH  15  16
ENDBRANCH   1   9
BRANCH   4  19
ATOM     19  C18 CBD B1001     136.246 134.158 176.717  1.00 27.96     0.026 C 
BRANCH  19  20
ATOM     20  C20 CBD B1001     137.335 133.405 175.908  1.00 27.96     0.005 C 
BRANCH  20  21
ATOM     21  C21 CBD B1001     136.987 131.891 175.824  1.00 27.96     0.000 C 
BRANCH  21  22
ATOM     22  C22 CBD B1001     137.631 131.152 177.021  1.00 27.96     0.000 C 
ATOM     23  C23 CBD B1001     136.545 130.329 177.756  1.00 27.96     0.000 C 
ENDBRANCH  21  22
ENDBRANCH  20  21
ENDBRANCH  19  20
ENDBRANCH   4  19
TORSDOF 6
ENDMDL
