MODEL 1
REMARK VINA RESULT:      -1.6      0.000      0.000
REMARK  6 active torsions:
REMARK  status: ('A' for Active; 'I' for Inactive)
REMARK    1  A    between atoms: C03_1  and  C10_8 
REMARK    2  A    between atoms: C04_2  and  C08_6 
REMARK    3  A    between atoms: C15_13  and  C18_16 
REMARK    4  A    between atoms: C18_16  and  C20_18 
REMARK    5  A    between atoms: C20_18  and  C21_19 
REMARK    6  A    between atoms: C21_19  and  C22_20 
ROOT
ATOM      1  C08 CBD B1001     142.055 142.420 194.160  1.00 27.96     0.033 A 
ATOM      2  C11 CBD B1001     140.951 143.149 193.734  1.00 27.96     0.129 A 
ATOM      3  C12 CBD B1001     141.862 141.297 194.977  1.00 27.96     0.129 A 
ATOM      4  C15 CBD B1001     139.471 141.713 194.968  1.00 27.96    -0.018 A 
ATOM      5  C16 CBD B1001     139.664 142.814 194.143  1.00 27.96     0.023 A 
ATOM      6  C17 CBD B1001     140.567 140.957 195.388  1.00 27.96     0.023 A 
ATOM      7  O01 CBD B1001     141.162 144.258 192.903  1.00 27.96    -0.190 OA
ATOM      8  O02 CBD B1001     142.934 140.508 195.422  1.00 27.96    -0.190 OA
ENDROOT
BRANCH   1   9
ATOM      9  C04 CBD B1001     143.405 142.912 193.586  1.00 27.96     0.051 C 
ATOM     10  C07 CBD B1001     144.098 143.566 194.762  1.00 27.96    -0.030 C 
ATOM     11  C09 CBD B1001     145.390 143.730 194.621  1.00 27.96    -0.048 C 
ATOM     12  C06 CBD B1001     145.947 144.280 193.306  1.00 27.96     0.022 C 
ATOM     13  C13 CBD B1001     146.282 142.787 195.422  1.00 27.96     0.026 C 
ATOM     14  C05 CBD B1001     144.984 144.153 192.105  1.00 27.96     0.009 C 
ATOM     15  C03 CBD B1001     143.500 143.943 192.455  1.00 27.96     0.027 C 
BRANCH  15  16
ATOM     16  C10 CBD B1001     142.825 143.509 191.148  1.00 27.96    -0.044 C 
ATOM     17  C19 CBD B1001     141.986 142.472 191.128  1.00 27.96    -0.009 C 
ATOM     18  C14 CBD B1001     143.158 144.260 189.844  1.00 27.96     0.026 C 
ENDBRANCH  15  16
ENDBRANCH   1   9
BRANCH   4  19
ATOM     19  C18 CBD B1001     138.030 141.356 195.412  1.00 27.96     0.026 C 
BRANCH  19  20
ATOM     20  C20 CBD B1001     137.790 139.842 195.171  1.00 27.96     0.005 C 
BRANCH  20  21
ATOM     21  C21 CBD B1001     136.351 139.608 194.629  1.00 27.96     0.000 C 
BRANCH  21  22
ATOM     22  C22 CBD B1001     136.401 139.479 193.088  1.00 27.96     0.000 C 
ATOM     23  C23 CBD B1001     136.253 137.989 192.696  1.00 27.96     0.000 C 
ENDBRANCH  21  22
ENDBRANCH  20  21
ENDBRANCH  19  20
ENDBRANCH   4  19
TORSDOF 6
ENDMDL
