MODEL 1
REMARK VINA RESULT:      -1.3      0.000      0.000
REMARK  6 active torsions:
REMARK  status: ('A' for Active; 'I' for Inactive)
REMARK    1  A    between atoms: C03_1  and  C10_8 
REMARK    2  A    between atoms: C04_2  and  C08_6 
REMARK    3  A    between atoms: C15_13  and  C18_16 
REMARK    4  A    between atoms: C18_16  and  C20_18 
REMARK    5  A    between atoms: C20_18  and  C21_19 
REMARK    6  A    between atoms: C21_19  and  C22_20 
ROOT
ATOM      1  C08 CBD B1001     144.097 134.920 153.500  1.00 27.96     0.033 A 
ATOM      2  C11 CBD B1001     145.352 134.590 153.003  1.00 27.96     0.129 A 
ATOM      3  C12 CBD B1001     143.245 133.898 153.945  1.00 27.96     0.129 A 
ATOM      4  C15 CBD B1001     144.909 132.248 153.312  1.00 27.96    -0.018 A 
ATOM      5  C16 CBD B1001     145.758 133.264 152.890  1.00 27.96     0.023 A 
ATOM      6  C17 CBD B1001     143.653 132.563 153.835  1.00 27.96     0.023 A 
ATOM      7  O01 CBD B1001     146.197 135.626 152.580  1.00 27.96    -0.190 OA
ATOM      8  O02 CBD B1001     141.975 134.168 154.477  1.00 27.96    -0.190 OA
ENDROOT
BRANCH   1   9
ATOM      9  C04 CBD B1001     143.822 136.440 153.583  1.00 27.96     0.051 C 
ATOM     10  C07 CBD B1001     144.742 136.930 154.680  1.00 27.96    -0.030 C 
ATOM     11  C09 CBD B1001     144.958 138.222 154.685  1.00 27.96    -0.048 C 
ATOM     12  C06 CBD B1001     143.784 139.188 154.508  1.00 27.96     0.022 C 
ATOM     13  C13 CBD B1001     146.327 138.681 154.192  1.00 27.96     0.026 C 
ATOM     14  C05 CBD B1001     142.526 138.553 153.877  1.00 27.96     0.009 C 
ATOM     15  C03 CBD B1001     142.447 137.016 153.941  1.00 27.96     0.027 C 
BRANCH  15  16
ATOM     16  C10 CBD B1001     141.325 136.620 152.974  1.00 27.96    -0.044 C 
ATOM     17  C19 CBD B1001     141.238 135.373 152.509  1.00 27.96    -0.009 C 
ATOM     18  C14 CBD B1001     140.318 137.691 152.510  1.00 27.96     0.026 C 
ENDBRANCH  15  16
ENDBRANCH   1   9
BRANCH   4  19
ATOM     19  C18 CBD B1001     145.380 130.778 153.180  1.00 27.96     0.026 C 
BRANCH  19  20
ATOM     20  C20 CBD B1001     145.388 130.124 154.587  1.00 27.96     0.005 C 
BRANCH  20  21
ATOM     21  C21 CBD B1001     143.957 129.638 154.958  1.00 27.96     0.000 C 
BRANCH  21  22
ATOM     22  C22 CBD B1001     143.633 130.069 156.408  1.00 27.96     0.000 C 
ATOM     23  C23 CBD B1001     142.198 130.649 156.459  1.00 27.96     0.000 C 
ENDBRANCH  21  22
ENDBRANCH  20  21
ENDBRANCH  19  20
ENDBRANCH   4  19
TORSDOF 6
ENDMDL
MODEL 2
REMARK VINA RESULT:      -1.2      1.752      3.353
REMARK  6 active torsions:
REMARK  status: ('A' for Active; 'I' for Inactive)
REMARK    1  A    between atoms: C03_1  and  C10_8 
REMARK    2  A    between atoms: C04_2  and  C08_6 
REMARK    3  A    between atoms: C15_13  and  C18_16 
REMARK    4  A    between atoms: C18_16  and  C20_18 
REMARK    5  A    between atoms: C20_18  and  C21_19 
REMARK    6  A    between atoms: C21_19  and  C22_20 
ROOT
ATOM      1  C08 CBD B1001     142.671 135.099 153.376  1.00 27.96     0.033 A 
ATOM      2  C11 CBD B1001     143.496 134.022 153.679  1.00 27.96     0.129 A 
ATOM      3  C12 CBD B1001     141.408 134.858 152.816  1.00 27.96     0.129 A 
ATOM      4  C15 CBD B1001     141.871 132.475 152.819  1.00 27.96    -0.018 A 
ATOM      5  C16 CBD B1001     143.114 132.717 153.392  1.00 27.96     0.023 A 
ATOM      6  C17 CBD B1001     141.020 133.544 152.529  1.00 27.96     0.023 A 
ATOM      7  O01 CBD B1001     144.748 134.282 154.256  1.00 27.96    -0.190 OA
ATOM      8  O02 CBD B1001     140.521 135.900 152.508  1.00 27.96    -0.190 OA
ENDROOT
BRANCH   1   9
ATOM      9  C04 CBD B1001     143.240 136.477 153.790  1.00 27.96     0.051 C 
ATOM     10  C07 CBD B1001     142.213 137.472 153.295  1.00 27.96    -0.030 C 
ATOM     11  C09 CBD B1001     142.287 138.660 153.841  1.00 27.96    -0.048 C 
ATOM     12  C06 CBD B1001     143.649 139.340 153.999  1.00 27.96     0.022 C 
ATOM     13  C13 CBD B1001     141.207 139.003 154.864  1.00 27.96     0.026 C 
ATOM     14  C05 CBD B1001     144.853 138.376 153.929  1.00 27.96     0.009 C 
ATOM     15  C03 CBD B1001     144.581 137.011 153.272  1.00 27.96     0.027 C 
BRANCH  15  16
ATOM     16  C10 CBD B1001     145.788 136.134 153.627  1.00 27.96    -0.044 C 
ATOM     17  C19 CBD B1001     146.336 135.330 152.714  1.00 27.96    -0.009 C 
ATOM     18  C14 CBD B1001     146.340 136.161 155.066  1.00 27.96     0.026 C 
ENDBRANCH  15  16
ENDBRANCH   1   9
BRANCH   4  19
ATOM     19  C18 CBD B1001     141.463 131.014 152.508  1.00 27.96     0.026 C 
BRANCH  19  20
ATOM     20  C20 CBD B1001     141.428 130.208 153.834  1.00 27.96     0.005 C 
BRANCH  20  21
ATOM     21  C21 CBD B1001     140.138 130.550 154.634  1.00 27.96     0.000 C 
BRANCH  21  22
ATOM     22  C22 CBD B1001     140.475 130.611 156.143  1.00 27.96     0.000 C 
ATOM     23  C23 CBD B1001     142.012 130.660 156.320  1.00 27.96     0.000 C 
ENDBRANCH  21  22
ENDBRANCH  20  21
ENDBRANCH  19  20
ENDBRANCH   4  19
TORSDOF 6
ENDMDL
MODEL 3
REMARK VINA RESULT:       1.1      4.716      7.496
REMARK  6 active torsions:
REMARK  status: ('A' for Active; 'I' for Inactive)
REMARK    1  A    between atoms: C03_1  and  C10_8 
REMARK    2  A    between atoms: C04_2  and  C08_6 
REMARK    3  A    between atoms: C15_13  and  C18_16 
REMARK    4  A    between atoms: C18_16  and  C20_18 
REMARK    5  A    between atoms: C20_18  and  C21_19 
REMARK    6  A    between atoms: C21_19  and  C22_20 
ROOT
ATOM      1  C08 CBD B1001     141.550 130.656 154.813  1.00 27.96     0.033 A 
ATOM      2  C11 CBD B1001     140.322 130.251 155.322  1.00 27.96     0.129 A 
ATOM      3  C12 CBD B1001     141.586 131.621 153.796  1.00 27.96     0.129 A 
ATOM      4  C15 CBD B1001     139.160 131.687 153.785  1.00 27.96    -0.018 A 
ATOM      5  C16 CBD B1001     139.129 130.745 154.806  1.00 27.96     0.023 A 
ATOM      6  C17 CBD B1001     140.386 132.122 153.277  1.00 27.96     0.023 A 
ATOM      7  O01 CBD B1001     140.306 129.299 156.351  1.00 27.96    -0.190 OA
ATOM      8  O02 CBD B1001     142.794 132.087 153.256  1.00 27.96    -0.190 OA
ENDROOT
BRANCH   1   9
ATOM      9  C04 CBD B1001     142.774 130.029 155.522  1.00 27.96     0.051 C 
ATOM     10  C07 CBD B1001     142.797 130.686 156.885  1.00 27.96    -0.030 C 
ATOM     11  C09 CBD B1001     143.510 130.060 157.788  1.00 27.96    -0.048 C 
ATOM     12  C06 CBD B1001     144.903 129.539 157.428  1.00 27.96     0.022 C 
ATOM     13  C13 CBD B1001     142.731 129.303 158.859  1.00 27.96     0.026 C 
ATOM     14  C05 CBD B1001     145.153 129.386 155.913  1.00 27.96     0.009 C 
ATOM     15  C03 CBD B1001     144.206 130.177 154.993  1.00 27.96     0.027 C 
BRANCH  15  16
ATOM     16  C10 CBD B1001     144.421 129.605 153.587  1.00 27.96    -0.044 C 
ATOM     17  C19 CBD B1001     143.380 129.307 152.808  1.00 27.96    -0.009 C 
ATOM     18  C14 CBD B1001     145.857 129.339 153.095  1.00 27.96     0.026 C 
ENDBRANCH  15  16
ENDBRANCH   1   9
BRANCH   4  19
ATOM     19  C18 CBD B1001     137.820 132.227 153.225  1.00 27.96     0.026 C 
BRANCH  19  20
ATOM     20  C20 CBD B1001     136.649 131.459 153.895  1.00 27.96     0.005 C 
BRANCH  20  21
ATOM     21  C21 CBD B1001     137.000 129.948 154.015  1.00 27.96     0.000 C 
BRANCH  21  22
ATOM     22  C22 CBD B1001     137.375 129.398 152.619  1.00 27.96     0.000 C 
ATOM     23  C23 CBD B1001     138.916 129.301 152.508  1.00 27.96     0.000 C 
ENDBRANCH  21  22
ENDBRANCH  20  21
ENDBRANCH  19  20
ENDBRANCH   4  19
TORSDOF 6
ENDMDL
MODEL 4
REMARK VINA RESULT:       1.1      1.562      3.403
REMARK  6 active torsions:
REMARK  status: ('A' for Active; 'I' for Inactive)
REMARK    1  A    between atoms: C03_1  and  C10_8 
REMARK    2  A    between atoms: C04_2  and  C08_6 
REMARK    3  A    between atoms: C15_13  and  C18_16 
REMARK    4  A    between atoms: C18_16  and  C20_18 
REMARK    5  A    between atoms: C20_18  and  C21_19 
REMARK    6  A    between atoms: C21_19  and  C22_20 
ROOT
ATOM      1  C08 CBD B1001     142.999 135.025 153.402  1.00 27.96     0.033 A 
ATOM      2  C11 CBD B1001     141.813 134.574 152.835  1.00 27.96     0.129 A 
ATOM      3  C12 CBD B1001     144.003 134.099 153.719  1.00 27.96     0.129 A 
ATOM      4  C15 CBD B1001     142.569 132.296 152.954  1.00 27.96    -0.018 A 
ATOM      5  C16 CBD B1001     141.585 133.218 152.623  1.00 27.96     0.023 A 
ATOM      6  C17 CBD B1001     143.776 132.734 153.504  1.00 27.96     0.023 A 
ATOM      7  O01 CBD B1001     140.828 135.516 152.508  1.00 27.96    -0.190 OA
ATOM      8  O02 CBD B1001     145.230 134.493 154.274  1.00 27.96    -0.190 OA
ENDROOT
BRANCH   1   9
ATOM      9  C04 CBD B1001     143.097 136.563 153.539  1.00 27.96     0.051 C 
ATOM     10  C07 CBD B1001     141.796 137.076 152.960  1.00 27.96    -0.030 C 
ATOM     11  C09 CBD B1001     141.490 138.305 153.294  1.00 27.96    -0.048 C 
ATOM     12  C06 CBD B1001     142.561 139.397 153.238  1.00 27.96     0.022 C 
ATOM     13  C13 CBD B1001     140.372 138.468 154.319  1.00 27.96     0.026 C 
ATOM     14  C05 CBD B1001     144.011 138.866 153.243  1.00 27.96     0.009 C 
ATOM     15  C03 CBD B1001     144.186 137.390 152.844  1.00 27.96     0.027 C 
BRANCH  15  16
ATOM     16  C10 CBD B1001     145.616 137.019 153.253  1.00 27.96    -0.044 C 
ATOM     17  C19 CBD B1001     146.341 136.182 152.507  1.00 27.96    -0.009 C 
ATOM     18  C14 CBD B1001     146.198 137.592 154.559  1.00 27.96     0.026 C 
ENDBRANCH  15  16
ENDBRANCH   1   9
BRANCH   4  19
ATOM     19  C18 CBD B1001     142.296 130.791 152.709  1.00 27.96     0.026 C 
BRANCH  19  20
ATOM     20  C20 CBD B1001     142.456 130.026 154.050  1.00 27.96     0.005 C 
BRANCH  20  21
ATOM     21  C21 CBD B1001     141.104 130.002 154.817  1.00 27.96     0.000 C 
BRANCH  21  22
ATOM     22  C22 CBD B1001     141.313 130.574 156.239  1.00 27.96     0.000 C 
ATOM     23  C23 CBD B1001     142.811 130.464 156.617  1.00 27.96     0.000 C 
ENDBRANCH  21  22
ENDBRANCH  20  21
ENDBRANCH  19  20
ENDBRANCH   4  19
TORSDOF 6
ENDMDL
