MODEL 1
REMARK VINA RESULT:      -1.6      0.000      0.000
REMARK  6 active torsions:
REMARK  status: ('A' for Active; 'I' for Inactive)
REMARK    1  A    between atoms: C03_1  and  C10_8 
REMARK    2  A    between atoms: C04_2  and  C08_6 
REMARK    3  A    between atoms: C15_13  and  C18_16 
REMARK    4  A    between atoms: C18_16  and  C20_18 
REMARK    5  A    between atoms: C20_18  and  C21_19 
REMARK    6  A    between atoms: C21_19  and  C22_20 
ROOT
ATOM      1  C08 CBD B1001     147.082 137.271 155.065  1.00 27.96     0.033 A 
ATOM      2  C11 CBD B1001     148.160 137.699 155.831  1.00 27.96     0.129 A 
ATOM      3  C12 CBD B1001     147.071 135.959 154.569  1.00 27.96     0.129 A 
ATOM      4  C15 CBD B1001     149.250 135.574 155.565  1.00 27.96    -0.018 A 
ATOM      5  C16 CBD B1001     149.249 136.867 156.071  1.00 27.96     0.023 A 
ATOM      6  C17 CBD B1001     148.165 135.120 154.812  1.00 27.96     0.023 A 
ATOM      7  O01 CBD B1001     148.145 139.007 156.334  1.00 27.96    -0.190 OA
ATOM      8  O02 CBD B1001     146.002 135.462 153.808  1.00 27.96    -0.190 OA
ENDROOT
BRANCH   1   9
ATOM      9  C04 CBD B1001     145.946 138.312 154.923  1.00 27.96     0.051 C 
ATOM     10  C07 CBD B1001     144.704 137.483 154.677  1.00 27.96    -0.030 C 
ATOM     11  C09 CBD B1001     143.572 138.107 154.889  1.00 27.96    -0.048 C 
ATOM     12  C06 CBD B1001     143.376 139.526 154.351  1.00 27.96     0.022 C 
ATOM     13  C13 CBD B1001     142.816 137.725 156.158  1.00 27.96     0.026 C 
ATOM     14  C05 CBD B1001     144.688 140.266 154.014  1.00 27.96     0.009 C 
ATOM     15  C03 CBD B1001     145.929 139.376 153.819  1.00 27.96     0.027 C 
BRANCH  15  16
ATOM     16  C10 CBD B1001     147.129 140.330 153.844  1.00 27.96    -0.044 C 
ATOM     17  C19 CBD B1001     146.947 141.652 153.862  1.00 27.96    -0.009 C 
ATOM     18  C14 CBD B1001     148.555 139.746 153.808  1.00 27.96     0.026 C 
ENDBRANCH  15  16
ENDBRANCH   1   9
BRANCH   4  19
ATOM     19  C18 CBD B1001     150.472 134.663 155.845  1.00 27.96     0.026 C 
BRANCH  19  20
ATOM     20  C20 CBD B1001     150.096 133.197 155.501  1.00 27.96     0.005 C 
BRANCH  20  21
ATOM     21  C21 CBD B1001     150.456 132.259 156.688  1.00 27.96     0.000 C 
BRANCH  21  22
ATOM     22  C22 CBD B1001     150.777 133.116 157.936  1.00 27.96     0.000 C 
ATOM     23  C23 CBD B1001     151.444 132.223 159.010  1.00 27.96     0.000 C 
ENDBRANCH  21  22
ENDBRANCH  20  21
ENDBRANCH  19  20
ENDBRANCH   4  19
TORSDOF 6
ENDMDL
MODEL 2
REMARK VINA RESULT:      -0.2      1.559      2.241
REMARK  6 active torsions:
REMARK  status: ('A' for Active; 'I' for Inactive)
REMARK    1  A    between atoms: C03_1  and  C10_8 
REMARK    2  A    between atoms: C04_2  and  C08_6 
REMARK    3  A    between atoms: C15_13  and  C18_16 
REMARK    4  A    between atoms: C18_16  and  C20_18 
REMARK    5  A    between atoms: C20_18  and  C21_19 
REMARK    6  A    between atoms: C21_19  and  C22_20 
ROOT
ATOM      1  C08 CBD B1001     146.085 137.482 154.792  1.00 27.96     0.033 A 
ATOM      2  C11 CBD B1001     147.358 137.556 155.346  1.00 27.96     0.129 A 
ATOM      3  C12 CBD B1001     145.582 136.235 154.395  1.00 27.96     0.129 A 
ATOM      4  C15 CBD B1001     147.671 135.191 155.056  1.00 27.96    -0.018 A 
ATOM      5  C16 CBD B1001     148.159 136.425 155.466  1.00 27.96     0.023 A 
ATOM      6  C17 CBD B1001     146.386 135.095 154.518  1.00 27.96     0.023 A 
ATOM      7  O01 CBD B1001     147.837 138.809 155.754  1.00 27.96    -0.190 OA
ATOM      8  O02 CBD B1001     144.298 136.091 153.849  1.00 27.96    -0.190 OA
ENDROOT
BRANCH   1   9
ATOM      9  C04 CBD B1001     145.323 138.828 154.761  1.00 27.96     0.051 C 
ATOM     10  C07 CBD B1001     143.908 138.450 154.376  1.00 27.96    -0.030 C 
ATOM     11  C09 CBD B1001     143.002 139.358 154.641  1.00 27.96    -0.048 C 
ATOM     12  C06 CBD B1001     143.272 140.823 154.292  1.00 27.96     0.022 C 
ATOM     13  C13 CBD B1001     142.087 139.075 155.828  1.00 27.96     0.026 C 
ATOM     14  C05 CBD B1001     144.764 141.165 154.090  1.00 27.96     0.009 C 
ATOM     15  C03 CBD B1001     145.694 139.971 153.809  1.00 27.96     0.027 C 
BRANCH  15  16
ATOM     16  C10 CBD B1001     147.119 140.505 153.991  1.00 27.96    -0.044 C 
ATOM     17  C19 CBD B1001     148.173 139.705 153.813  1.00 27.96    -0.009 C 
ATOM     18  C14 CBD B1001     147.324 141.971 154.421  1.00 27.96     0.026 C 
ENDBRANCH  15  16
ENDBRANCH   1   9
BRANCH   4  19
ATOM     19  C18 CBD B1001     148.578 133.943 155.200  1.00 27.96     0.026 C 
BRANCH  19  20
ATOM     20  C20 CBD B1001     150.056 134.405 155.299  1.00 27.96     0.005 C 
BRANCH  20  21
ATOM     21  C21 CBD B1001     150.548 134.930 153.920  1.00 27.96     0.000 C 
BRANCH  21  22
ATOM     22  C22 CBD B1001     151.134 136.351 154.093  1.00 27.96     0.000 C 
ATOM     23  C23 CBD B1001     151.250 136.673 155.603  1.00 27.96     0.000 C 
ENDBRANCH  21  22
ENDBRANCH  20  21
ENDBRANCH  19  20
ENDBRANCH   4  19
TORSDOF 6
ENDMDL
MODEL 3
REMARK VINA RESULT:       1.0      1.706      6.707
REMARK  6 active torsions:
REMARK  status: ('A' for Active; 'I' for Inactive)
REMARK    1  A    between atoms: C03_1  and  C10_8 
REMARK    2  A    between atoms: C04_2  and  C08_6 
REMARK    3  A    between atoms: C15_13  and  C18_16 
REMARK    4  A    between atoms: C18_16  and  C20_18 
REMARK    5  A    between atoms: C20_18  and  C21_19 
REMARK    6  A    between atoms: C21_19  and  C22_20 
ROOT
ATOM      1  C08 CBD B1001     147.531 135.814 154.762  1.00 27.96     0.033 A 
ATOM      2  C11 CBD B1001     147.003 137.087 154.940  1.00 27.96     0.129 A 
ATOM      3  C12 CBD B1001     146.718 134.804 154.226  1.00 27.96     0.129 A 
ATOM      4  C15 CBD B1001     144.859 136.362 154.132  1.00 27.96    -0.018 A 
ATOM      5  C16 CBD B1001     145.673 137.365 154.645  1.00 27.96     0.023 A 
ATOM      6  C17 CBD B1001     145.379 135.083 153.925  1.00 27.96     0.023 A 
ATOM      7  O01 CBD B1001     147.836 138.088 155.460  1.00 27.96    -0.190 OA
ATOM      8  O02 CBD B1001     147.198 133.505 154.002  1.00 27.96    -0.190 OA
ENDROOT
BRANCH   1   9
ATOM      9  C04 CBD B1001     149.033 135.689 155.112  1.00 27.96     0.051 C 
ATOM     10  C07 CBD B1001     149.059 134.817 156.348  1.00 27.96    -0.030 C 
ATOM     11  C09 CBD B1001     150.221 134.273 156.616  1.00 27.96    -0.048 C 
ATOM     12  C06 CBD B1001     151.492 135.121 156.539  1.00 27.96     0.022 C 
ATOM     13  C13 CBD B1001     150.352 132.781 156.324  1.00 27.96     0.026 C 
ATOM     14  C05 CBD B1001     151.346 136.412 155.705  1.00 27.96     0.009 C 
ATOM     15  C03 CBD B1001     149.905 136.899 155.469  1.00 27.96     0.027 C 
BRANCH  15  16
ATOM     16  C10 CBD B1001     150.002 137.955 154.362  1.00 27.96    -0.044 C 
ATOM     17  C19 CBD B1001     148.900 138.507 153.851  1.00 27.96    -0.009 C 
ATOM     18  C14 CBD B1001     151.388 138.346 153.815  1.00 27.96     0.026 C 
ENDBRANCH  15  16
ENDBRANCH   1   9
BRANCH   4  19
ATOM     19  C18 CBD B1001     143.381 136.692 153.808  1.00 27.96     0.026 C 
BRANCH  19  20
ATOM     20  C20 CBD B1001     143.181 138.229 153.882  1.00 27.96     0.005 C 
BRANCH  20  21
ATOM     21  C21 CBD B1001     141.696 138.560 154.206  1.00 27.96     0.000 C 
BRANCH  21  22
ATOM     22  C22 CBD B1001     141.603 140.005 154.753  1.00 27.96     0.000 C 
ATOM     23  C23 CBD B1001     142.743 140.855 154.142  1.00 27.96     0.000 C 
ENDBRANCH  21  22
ENDBRANCH  20  21
ENDBRANCH  19  20
ENDBRANCH   4  19
TORSDOF 6
ENDMDL
