MODEL 1
REMARK VINA RESULT:      -6.3      0.000      0.000
REMARK  6 active torsions:
REMARK  status: ('A' for Active; 'I' for Inactive)
REMARK    1  A    between atoms: C03_1  and  C10_8 
REMARK    2  A    between atoms: C04_2  and  C08_6 
REMARK    3  A    between atoms: C15_13  and  C18_16 
REMARK    4  A    between atoms: C18_16  and  C20_18 
REMARK    5  A    between atoms: C20_18  and  C21_19 
REMARK    6  A    between atoms: C21_19  and  C22_20 
ROOT
ATOM      1  C08 CBD B1001     137.176 168.428 181.166  1.00 27.96     0.033 A 
ATOM      2  C11 CBD B1001     136.127 167.563 180.877  1.00 27.96     0.129 A 
ATOM      3  C12 CBD B1001     137.411 169.526 180.326  1.00 27.96     0.129 A 
ATOM      4  C15 CBD B1001     135.581 168.814 178.899  1.00 27.96    -0.018 A 
ATOM      5  C16 CBD B1001     135.339 167.739 179.744  1.00 27.96     0.023 A 
ATOM      6  C17 CBD B1001     136.617 169.706 179.186  1.00 27.96     0.023 A 
ATOM      7  O01 CBD B1001     135.896 166.481 181.738  1.00 27.96    -0.190 OA
ATOM      8  O02 CBD B1001     138.440 170.446 180.576  1.00 27.96    -0.190 OA
ENDROOT
BRANCH   1   9
ATOM      9  C04 CBD B1001     137.929 168.103 182.478  1.00 27.96     0.051 C 
ATOM     10  C07 CBD B1001     137.428 169.136 183.464  1.00 27.96    -0.030 C 
ATOM     11  C09 CBD B1001     137.638 168.845 184.724  1.00 27.96    -0.048 C 
ATOM     12  C06 CBD B1001     139.004 168.312 185.163  1.00 27.96     0.022 C 
ATOM     13  C13 CBD B1001     136.419 168.401 185.527  1.00 27.96     0.026 C 
ATOM     14  C05 CBD B1001     139.857 167.728 184.017  1.00 27.96     0.009 C 
ATOM     15  C03 CBD B1001     139.457 168.161 182.595  1.00 27.96     0.027 C 
BRANCH  15  16
ATOM     16  C10 CBD B1001     140.198 167.208 181.649  1.00 27.96    -0.044 C 
ATOM     17  C19 CBD B1001     140.589 166.003 182.068  1.00 27.96    -0.009 C 
ATOM     18  C14 CBD B1001     140.522 167.672 180.216  1.00 27.96     0.026 C 
ENDBRANCH  15  16
ENDBRANCH   1   9
BRANCH   4  19
ATOM     19  C18 CBD B1001     134.691 168.993 177.643  1.00 27.96     0.026 C 
BRANCH  19  20
ATOM     20  C20 CBD B1001     133.493 168.011 177.732  1.00 27.96     0.005 C 
BRANCH  20  21
ATOM     21  C21 CBD B1001     132.183 168.793 178.037  1.00 27.96     0.000 C 
BRANCH  21  22
ATOM     22  C22 CBD B1001     130.985 168.049 177.400  1.00 27.96     0.000 C 
ATOM     23  C23 CBD B1001     131.515 166.905 176.502  1.00 27.96     0.000 C 
ENDBRANCH  21  22
ENDBRANCH  20  21
ENDBRANCH  19  20
ENDBRANCH   4  19
TORSDOF 6
ENDMDL
MODEL 2
REMARK VINA RESULT:      -6.2      6.201      9.503
REMARK  6 active torsions:
REMARK  status: ('A' for Active; 'I' for Inactive)
REMARK    1  A    between atoms: C03_1  and  C10_8 
REMARK    2  A    between atoms: C04_2  and  C08_6 
REMARK    3  A    between atoms: C15_13  and  C18_16 
REMARK    4  A    between atoms: C18_16  and  C20_18 
REMARK    5  A    between atoms: C20_18  and  C21_19 
REMARK    6  A    between atoms: C21_19  and  C22_20 
ROOT
ATOM      1  C08 CBD B1001     143.198 166.484 178.204  1.00 27.96     0.033 A 
ATOM      2  C11 CBD B1001     141.929 165.918 178.219  1.00 27.96     0.129 A 
ATOM      3  C12 CBD B1001     143.890 166.648 179.412  1.00 27.96     0.129 A 
ATOM      4  C15 CBD B1001     141.988 165.740 180.615  1.00 27.96    -0.018 A 
ATOM      5  C16 CBD B1001     141.313 165.561 179.414  1.00 27.96     0.023 A 
ATOM      6  C17 CBD B1001     143.273 166.286 180.616  1.00 27.96     0.023 A 
ATOM      7  O01 CBD B1001     141.259 165.744 176.999  1.00 27.96    -0.190 OA
ATOM      8  O02 CBD B1001     145.183 167.193 179.460  1.00 27.96    -0.190 OA
ENDROOT
BRANCH   1   9
ATOM      9  C04 CBD B1001     143.742 166.794 176.788  1.00 27.96     0.051 C 
ATOM     10  C07 CBD B1001     144.597 165.593 176.443  1.00 27.96    -0.030 C 
ATOM     11  C09 CBD B1001     144.864 165.453 175.168  1.00 27.96    -0.048 C 
ATOM     12  C06 CBD B1001     145.300 166.668 174.346  1.00 27.96     0.022 C 
ATOM     13  C13 CBD B1001     144.115 164.343 174.439  1.00 27.96     0.026 C 
ATOM     14  C05 CBD B1001     144.938 168.029 174.980  1.00 27.96     0.009 C 
ATOM     15  C03 CBD B1001     144.632 168.006 176.488  1.00 27.96     0.027 C 
BRANCH  15  16
ATOM     16  C10 CBD B1001     143.980 169.358 176.798  1.00 27.96    -0.044 C 
ATOM     17  C19 CBD B1001     144.699 170.358 177.312  1.00 27.96    -0.009 C 
ATOM     18  C14 CBD B1001     142.471 169.541 176.547  1.00 27.96     0.026 C 
ENDBRANCH  15  16
ENDBRANCH   1   9
BRANCH   4  19
ATOM     19  C18 CBD B1001     141.286 165.334 181.935  1.00 27.96     0.026 C 
BRANCH  19  20
ATOM     20  C20 CBD B1001     142.224 165.665 183.126  1.00 27.96     0.005 C 
BRANCH  20  21
ATOM     21  C21 CBD B1001     141.431 166.405 184.242  1.00 27.96     0.000 C 
BRANCH  21  22
ATOM     22  C22 CBD B1001     141.974 167.846 184.384  1.00 27.96     0.000 C 
ATOM     23  C23 CBD B1001     143.471 167.868 183.987  1.00 27.96     0.000 C 
ENDBRANCH  21  22
ENDBRANCH  20  21
ENDBRANCH  19  20
ENDBRANCH   4  19
TORSDOF 6
ENDMDL
MODEL 3
REMARK VINA RESULT:      -6.1      6.316      9.463
REMARK  6 active torsions:
REMARK  status: ('A' for Active; 'I' for Inactive)
REMARK    1  A    between atoms: C03_1  and  C10_8 
REMARK    2  A    between atoms: C04_2  and  C08_6 
REMARK    3  A    between atoms: C15_13  and  C18_16 
REMARK    4  A    between atoms: C18_16  and  C20_18 
REMARK    5  A    between atoms: C20_18  and  C21_19 
REMARK    6  A    between atoms: C21_19  and  C22_20 
ROOT
ATOM      1  C08 CBD B1001     143.412 166.632 178.142  1.00 27.96     0.033 A 
ATOM      2  C11 CBD B1001     143.967 166.830 179.400  1.00 27.96     0.129 A 
ATOM      3  C12 CBD B1001     142.161 166.007 178.035  1.00 27.96     0.129 A 
ATOM      4  C15 CBD B1001     142.099 165.737 180.446  1.00 27.96    -0.018 A 
ATOM      5  C16 CBD B1001     143.329 166.374 180.549  1.00 27.96     0.023 A 
ATOM      6  C17 CBD B1001     141.516 165.550 179.190  1.00 27.96     0.023 A 
ATOM      7  O01 CBD B1001     145.209 167.474 179.489  1.00 27.96    -0.190 OA
ATOM      8  O02 CBD B1001     141.538 165.798 176.794  1.00 27.96    -0.190 OA
ENDROOT
BRANCH   1   9
ATOM      9  C04 CBD B1001     144.239 167.228 176.978  1.00 27.96     0.051 C 
ATOM     10  C07 CBD B1001     143.533 168.523 176.639  1.00 27.96    -0.030 C 
ATOM     11  C09 CBD B1001     144.245 169.375 175.943  1.00 27.96    -0.048 C 
ATOM     12  C06 CBD B1001     145.056 168.884 174.742  1.00 27.96     0.022 C 
ATOM     13  C13 CBD B1001     144.773 170.590 176.700  1.00 27.96     0.026 C 
ATOM     14  C05 CBD B1001     145.333 167.366 174.739  1.00 27.96     0.009 C 
ATOM     15  C03 CBD B1001     144.412 166.514 175.632  1.00 27.96     0.027 C 
BRANCH  15  16
ATOM     16  C10 CBD B1001     145.085 165.140 175.729  1.00 27.96    -0.044 C 
ATOM     17  C19 CBD B1001     146.376 165.038 176.049  1.00 27.96    -0.009 C 
ATOM     18  C14 CBD B1001     144.264 163.875 175.412  1.00 27.96     0.026 C 
ENDBRANCH  15  16
ENDBRANCH   1   9
BRANCH   4  19
ATOM     19  C18 CBD B1001     141.405 165.238 181.737  1.00 27.96     0.026 C 
BRANCH  19  20
ATOM     20  C20 CBD B1001     142.297 165.591 182.957  1.00 27.96     0.005 C 
BRANCH  20  21
ATOM     21  C21 CBD B1001     141.466 166.359 184.024  1.00 27.96     0.000 C 
BRANCH  21  22
ATOM     22  C22 CBD B1001     142.232 167.635 184.446  1.00 27.96     0.000 C 
ATOM     23  C23 CBD B1001     142.067 168.714 183.348  1.00 27.96     0.000 C 
ENDBRANCH  21  22
ENDBRANCH  20  21
ENDBRANCH  19  20
ENDBRANCH   4  19
TORSDOF 6
ENDMDL
MODEL 4
REMARK VINA RESULT:      -6.0      8.556     12.265
REMARK  6 active torsions:
REMARK  status: ('A' for Active; 'I' for Inactive)
REMARK    1  A    between atoms: C03_1  and  C10_8 
REMARK    2  A    between atoms: C04_2  and  C08_6 
REMARK    3  A    between atoms: C15_13  and  C18_16 
REMARK    4  A    between atoms: C18_16  and  C20_18 
REMARK    5  A    between atoms: C20_18  and  C21_19 
REMARK    6  A    between atoms: C21_19  and  C22_20 
ROOT
ATOM      1  C08 CBD B1001     136.362 171.235 170.327  1.00 27.96     0.033 A 
ATOM      2  C11 CBD B1001     135.045 171.432 170.722  1.00 27.96     0.129 A 
ATOM      3  C12 CBD B1001     137.244 170.567 171.189  1.00 27.96     0.129 A 
ATOM      4  C15 CBD B1001     135.474 170.379 172.839  1.00 27.96    -0.018 A 
ATOM      5  C16 CBD B1001     134.599 171.024 171.975  1.00 27.96     0.023 A 
ATOM      6  C17 CBD B1001     136.796 170.153 172.449  1.00 27.96     0.023 A 
ATOM      7  O01 CBD B1001     134.173 172.085 169.839  1.00 27.96    -0.190 OA
ATOM      8  O02 CBD B1001     138.580 170.319 170.839  1.00 27.96    -0.190 OA
ENDROOT
BRANCH   1   9
ATOM      9  C04 CBD B1001     136.679 171.723 168.893  1.00 27.96     0.051 C 
ATOM     10  C07 CBD B1001     136.676 170.462 168.057  1.00 27.96    -0.030 C 
ATOM     11  C09 CBD B1001     136.556 170.654 166.767  1.00 27.96    -0.048 C 
ATOM     12  C06 CBD B1001     137.386 171.741 166.081  1.00 27.96     0.022 C 
ATOM     13  C13 CBD B1001     135.200 170.315 166.156  1.00 27.96     0.026 C 
ATOM     14  C05 CBD B1001     137.940 172.818 167.039  1.00 27.96     0.009 C 
ATOM     15  C03 CBD B1001     137.990 172.430 168.528  1.00 27.96     0.027 C 
BRANCH  15  16
ATOM     16  C10 CBD B1001     138.234 173.739 169.288  1.00 27.96    -0.044 C 
ATOM     17  C19 CBD B1001     137.583 174.853 168.949  1.00 27.96    -0.009 C 
ATOM     18  C14 CBD B1001     139.273 173.765 170.426  1.00 27.96     0.026 C 
ENDBRANCH  15  16
ENDBRANCH   1   9
BRANCH   4  19
ATOM     19  C18 CBD B1001     134.958 169.931 174.229  1.00 27.96     0.026 C 
BRANCH  19  20
ATOM     20  C20 CBD B1001     133.483 169.467 174.092  1.00 27.96     0.005 C 
BRANCH  20  21
ATOM     21  C21 CBD B1001     133.346 167.982 174.534  1.00 27.96     0.000 C 
BRANCH  21  22
ATOM     22  C22 CBD B1001     133.136 167.923 176.066  1.00 27.96     0.000 C 
ATOM     23  C23 CBD B1001     131.882 167.070 176.376  1.00 27.96     0.000 C 
ENDBRANCH  21  22
ENDBRANCH  20  21
ENDBRANCH  19  20
ENDBRANCH   4  19
TORSDOF 6
ENDMDL
MODEL 5
REMARK VINA RESULT:      -5.9      4.605      7.925
REMARK  6 active torsions:
REMARK  status: ('A' for Active; 'I' for Inactive)
REMARK    1  A    between atoms: C03_1  and  C10_8 
REMARK    2  A    between atoms: C04_2  and  C08_6 
REMARK    3  A    between atoms: C15_13  and  C18_16 
REMARK    4  A    between atoms: C18_16  and  C20_18 
REMARK    5  A    between atoms: C20_18  and  C21_19 
REMARK    6  A    between atoms: C21_19  and  C22_20 
ROOT
ATOM      1  C08 CBD B1001     134.201 169.880 175.614  1.00 27.96     0.033 A 
ATOM      2  C11 CBD B1001     134.166 168.944 174.588  1.00 27.96     0.129 A 
ATOM      3  C12 CBD B1001     134.938 171.061 175.441  1.00 27.96     0.129 A 
ATOM      4  C15 CBD B1001     135.637 170.291 173.247  1.00 27.96    -0.018 A 
ATOM      5  C16 CBD B1001     134.890 169.132 173.415  1.00 27.96     0.023 A 
ATOM      6  C17 CBD B1001     135.664 171.253 174.259  1.00 27.96     0.023 A 
ATOM      7  O01 CBD B1001     133.409 167.778 174.772  1.00 27.96    -0.190 OA
ATOM      8  O02 CBD B1001     134.995 172.054 176.430  1.00 27.96    -0.190 OA
ENDROOT
BRANCH   1   9
ATOM      9  C04 CBD B1001     133.316 169.525 176.833  1.00 27.96     0.051 C 
ATOM     10  C07 CBD B1001     132.076 170.375 176.658  1.00 27.96    -0.030 C 
ATOM     11  C09 CBD B1001     131.037 169.986 177.354  1.00 27.96    -0.048 C 
ATOM     12  C06 CBD B1001     131.210 169.598 178.824  1.00 27.96     0.022 C 
ATOM     13  C13 CBD B1001     129.918 169.304 176.574  1.00 27.96     0.026 C 
ATOM     14  C05 CBD B1001     132.660 169.254 179.225  1.00 27.96     0.009 C 
ATOM     15  C03 CBD B1001     133.759 169.774 178.280  1.00 27.96     0.027 C 
BRANCH  15  16
ATOM     16  C10 CBD B1001     135.037 169.031 178.685  1.00 27.96    -0.044 C 
ATOM     17  C19 CBD B1001     135.015 167.717 178.918  1.00 27.96    -0.009 C 
ATOM     18  C14 CBD B1001     136.346 169.826 178.860  1.00 27.96     0.026 C 
ENDBRANCH  15  16
ENDBRANCH   1   9
BRANCH   4  19
ATOM     19  C18 CBD B1001     136.434 170.483 171.933  1.00 27.96     0.026 C 
BRANCH  19  20
ATOM     20  C20 CBD B1001     137.925 170.141 172.194  1.00 27.96     0.005 C 
BRANCH  20  21
ATOM     21  C21 CBD B1001     138.811 170.702 171.046  1.00 27.96     0.000 C 
BRANCH  21  22
ATOM     22  C22 CBD B1001     139.387 172.074 171.469  1.00 27.96     0.000 C 
ATOM     23  C23 CBD B1001     138.814 173.174 170.542  1.00 27.96     0.000 C 
ENDBRANCH  21  22
ENDBRANCH  20  21
ENDBRANCH  19  20
ENDBRANCH   4  19
TORSDOF 6
ENDMDL
MODEL 6
REMARK VINA RESULT:      -5.7      0.944      3.365
REMARK  6 active torsions:
REMARK  status: ('A' for Active; 'I' for Inactive)
REMARK    1  A    between atoms: C03_1  and  C10_8 
REMARK    2  A    between atoms: C04_2  and  C08_6 
REMARK    3  A    between atoms: C15_13  and  C18_16 
REMARK    4  A    between atoms: C18_16  and  C20_18 
REMARK    5  A    between atoms: C20_18  and  C21_19 
REMARK    6  A    between atoms: C21_19  and  C22_20 
ROOT
ATOM      1  C08 CBD B1001     136.838 168.623 181.041  1.00 27.96     0.033 A 
ATOM      2  C11 CBD B1001     137.009 169.676 180.150  1.00 27.96     0.129 A 
ATOM      3  C12 CBD B1001     135.941 167.593 180.721  1.00 27.96     0.129 A 
ATOM      4  C15 CBD B1001     135.367 168.743 178.663  1.00 27.96    -0.018 A 
ATOM      5  C16 CBD B1001     136.271 169.752 178.974  1.00 27.96     0.023 A 
ATOM      6  C17 CBD B1001     135.199 167.667 179.536  1.00 27.96     0.023 A 
ATOM      7  O01 CBD B1001     137.923 170.687 180.478  1.00 27.96    -0.190 OA
ATOM      8  O02 CBD B1001     135.740 166.493 181.569  1.00 27.96    -0.190 OA
ENDROOT
BRANCH   1   9
ATOM      9  C04 CBD B1001     137.759 168.681 182.283  1.00 27.96     0.051 C 
ATOM     10  C07 CBD B1001     138.853 167.678 181.986  1.00 27.96    -0.030 C 
ATOM     11  C09 CBD B1001     139.936 167.812 182.712  1.00 27.96    -0.048 C 
ATOM     12  C06 CBD B1001     139.816 168.033 184.221  1.00 27.96     0.022 C 
ATOM     13  C13 CBD B1001     141.152 168.406 182.008  1.00 27.96     0.026 C 
ATOM     14  C05 CBD B1001     138.434 168.544 184.681  1.00 27.96     0.009 C 
ATOM     15  C03 CBD B1001     137.274 168.323 183.693  1.00 27.96     0.027 C 
BRANCH  15  16
ATOM     16  C10 CBD B1001     136.123 169.198 184.205  1.00 27.96    -0.044 C 
ATOM     17  C19 CBD B1001     134.993 168.644 184.647  1.00 27.96    -0.009 C 
ATOM     18  C14 CBD B1001     136.270 170.732 184.167  1.00 27.96     0.026 C 
ENDBRANCH  15  16
ENDBRANCH   1   9
BRANCH   4  19
ATOM     19  C18 CBD B1001     134.556 168.846 177.347  1.00 27.96     0.026 C 
BRANCH  19  20
ATOM     20  C20 CBD B1001     133.327 167.903 177.439  1.00 27.96     0.005 C 
BRANCH  20  21
ATOM     21  C21 CBD B1001     132.717 167.680 176.025  1.00 27.96     0.000 C 
BRANCH  21  22
ATOM     22  C22 CBD B1001     131.188 167.908 176.088  1.00 27.96     0.000 C 
ATOM     23  C23 CBD B1001     130.811 168.457 177.485  1.00 27.96     0.000 C 
ENDBRANCH  21  22
ENDBRANCH  20  21
ENDBRANCH  19  20
ENDBRANCH   4  19
TORSDOF 6
ENDMDL
MODEL 7
REMARK VINA RESULT:      -5.5      3.379      6.809
REMARK  6 active torsions:
REMARK  status: ('A' for Active; 'I' for Inactive)
REMARK    1  A    between atoms: C03_1  and  C10_8 
REMARK    2  A    between atoms: C04_2  and  C08_6 
REMARK    3  A    between atoms: C15_13  and  C18_16 
REMARK    4  A    between atoms: C18_16  and  C20_18 
REMARK    5  A    between atoms: C20_18  and  C21_19 
REMARK    6  A    between atoms: C21_19  and  C22_20 
ROOT
ATOM      1  C08 CBD B1001     140.489 167.263 180.885  1.00 27.96     0.033 A 
ATOM      2  C11 CBD B1001     141.006 165.973 180.828  1.00 27.96     0.129 A 
ATOM      3  C12 CBD B1001     140.740 168.149 179.828  1.00 27.96     0.129 A 
ATOM      4  C15 CBD B1001     142.074 166.445 178.728  1.00 27.96    -0.018 A 
ATOM      5  C16 CBD B1001     141.807 165.564 179.768  1.00 27.96     0.023 A 
ATOM      6  C17 CBD B1001     141.545 167.737 178.758  1.00 27.96     0.023 A 
ATOM      7  O01 CBD B1001     140.729 165.095 181.886  1.00 27.96    -0.190 OA
ATOM      8  O02 CBD B1001     140.229 169.456 179.817  1.00 27.96    -0.190 OA
ENDROOT
BRANCH   1   9
ATOM      9  C04 CBD B1001     139.596 167.539 182.118  1.00 27.96     0.051 C 
ATOM     10  C07 CBD B1001     138.359 168.197 181.546  1.00 27.96    -0.030 C 
ATOM     11  C09 CBD B1001     137.314 168.191 182.337  1.00 27.96    -0.048 C 
ATOM     12  C06 CBD B1001     137.477 168.561 183.813  1.00 27.96     0.022 C 
ATOM     13  C13 CBD B1001     136.199 167.214 181.976  1.00 27.96     0.026 C 
ATOM     14  C05 CBD B1001     138.924 168.456 184.339  1.00 27.96     0.009 C 
ATOM     15  C03 CBD B1001     140.030 168.457 183.268  1.00 27.96     0.027 C 
BRANCH  15  16
ATOM     16  C10 CBD B1001     141.304 168.004 183.990  1.00 27.96    -0.044 C 
ATOM     17  C19 CBD B1001     142.498 168.472 183.619  1.00 27.96    -0.009 C 
ATOM     18  C14 CBD B1001     141.198 166.968 185.126  1.00 27.96     0.026 C 
ENDBRANCH  15  16
ENDBRANCH   1   9
BRANCH   4  19
ATOM     19  C18 CBD B1001     142.968 165.970 177.555  1.00 27.96     0.026 C 
BRANCH  19  20
ATOM     20  C20 CBD B1001     143.997 167.082 177.224  1.00 27.96     0.005 C 
BRANCH  20  21
ATOM     21  C21 CBD B1001     145.334 166.815 177.973  1.00 27.96     0.000 C 
BRANCH  21  22
ATOM     22  C22 CBD B1001     145.482 167.831 179.131  1.00 27.96     0.000 C 
ATOM     23  C23 CBD B1001     145.173 167.123 180.473  1.00 27.96     0.000 C 
ENDBRANCH  21  22
ENDBRANCH  20  21
ENDBRANCH  19  20
ENDBRANCH   4  19
TORSDOF 6
ENDMDL
MODEL 8
REMARK VINA RESULT:      -5.4      7.934     11.670
REMARK  6 active torsions:
REMARK  status: ('A' for Active; 'I' for Inactive)
REMARK    1  A    between atoms: C03_1  and  C10_8 
REMARK    2  A    between atoms: C04_2  and  C08_6 
REMARK    3  A    between atoms: C15_13  and  C18_16 
REMARK    4  A    between atoms: C18_16  and  C20_18 
REMARK    5  A    between atoms: C20_18  and  C21_19 
REMARK    6  A    between atoms: C21_19  and  C22_20 
ROOT
ATOM      1  C08 CBD B1001     136.030 171.452 171.123  1.00 27.96     0.033 A 
ATOM      2  C11 CBD B1001     136.774 170.490 171.796  1.00 27.96     0.129 A 
ATOM      3  C12 CBD B1001     134.757 171.792 171.601  1.00 27.96     0.129 A 
ATOM      4  C15 CBD B1001     134.990 170.144 173.368  1.00 27.96    -0.018 A 
ATOM      5  C16 CBD B1001     136.259 169.824 172.903  1.00 27.96     0.023 A 
ATOM      6  C17 CBD B1001     134.237 171.124 172.717  1.00 27.96     0.023 A 
ATOM      7  O01 CBD B1001     138.053 170.177 171.314  1.00 27.96    -0.190 OA
ATOM      8  O02 CBD B1001     133.966 172.770 170.979  1.00 27.96    -0.190 OA
ENDROOT
BRANCH   1   9
ATOM      9  C04 CBD B1001     136.767 172.113 169.933  1.00 27.96     0.051 C 
ATOM     10  C07 CBD B1001     137.237 173.445 170.476  1.00 27.96    -0.030 C 
ATOM     11  C09 CBD B1001     138.188 174.020 169.781  1.00 27.96    -0.048 C 
ATOM     12  C06 CBD B1001     138.086 174.075 168.255  1.00 27.96     0.022 C 
ATOM     13  C13 CBD B1001     139.586 173.987 170.392  1.00 27.96     0.026 C 
ATOM     14  C05 CBD B1001     137.111 173.046 167.645  1.00 27.96     0.009 C 
ATOM     15  C03 CBD B1001     136.069 172.454 168.611  1.00 27.96     0.027 C 
BRANCH  15  16
ATOM     16  C10 CBD B1001     135.471 171.244 167.883  1.00 27.96    -0.044 C 
ATOM     17  C19 CBD B1001     134.150 171.059 167.844  1.00 27.96    -0.009 C 
ATOM     18  C14 CBD B1001     136.416 170.218 167.229  1.00 27.96     0.026 C 
ENDBRANCH  15  16
ENDBRANCH   1   9
BRANCH   4  19
ATOM     19  C18 CBD B1001     134.434 169.392 174.603  1.00 27.96     0.026 C 
BRANCH  19  20
ATOM     20  C20 CBD B1001     133.600 168.177 174.118  1.00 27.96     0.005 C 
BRANCH  20  21
ATOM     21  C21 CBD B1001     132.647 167.696 175.250  1.00 27.96     0.000 C 
BRANCH  21  22
ATOM     22  C22 CBD B1001     133.290 168.006 176.623  1.00 27.96     0.000 C 
ATOM     23  C23 CBD B1001     132.173 168.164 177.684  1.00 27.96     0.000 C 
ENDBRANCH  21  22
ENDBRANCH  20  21
ENDBRANCH  19  20
ENDBRANCH   4  19
TORSDOF 6
ENDMDL
MODEL 9
REMARK VINA RESULT:      -5.4      1.354      2.255
REMARK  6 active torsions:
REMARK  status: ('A' for Active; 'I' for Inactive)
REMARK    1  A    between atoms: C03_1  and  C10_8 
REMARK    2  A    between atoms: C04_2  and  C08_6 
REMARK    3  A    between atoms: C15_13  and  C18_16 
REMARK    4  A    between atoms: C18_16  and  C20_18 
REMARK    5  A    between atoms: C20_18  and  C21_19 
REMARK    6  A    between atoms: C21_19  and  C22_20 
ROOT
ATOM      1  C08 CBD B1001     136.798 168.365 180.930  1.00 27.96     0.033 A 
ATOM      2  C11 CBD B1001     135.871 167.372 180.636  1.00 27.96     0.129 A 
ATOM      3  C12 CBD B1001     136.909 169.472 180.076  1.00 27.96     0.129 A 
ATOM      4  C15 CBD B1001     135.212 168.516 178.629  1.00 27.96    -0.018 A 
ATOM      5  C16 CBD B1001     135.090 167.431 179.487  1.00 27.96     0.023 A 
ATOM      6  C17 CBD B1001     136.122 169.534 178.920  1.00 27.96     0.023 A 
ATOM      7  O01 CBD B1001     135.760 166.281 181.511  1.00 27.96    -0.190 OA
ATOM      8  O02 CBD B1001     137.810 170.517 180.330  1.00 27.96    -0.190 OA
ENDROOT
BRANCH   1   9
ATOM      9  C04 CBD B1001     137.559 168.156 182.261  1.00 27.96     0.051 C 
ATOM     10  C07 CBD B1001     136.886 169.101 183.232  1.00 27.96    -0.030 C 
ATOM     11  C09 CBD B1001     137.107 168.844 184.497  1.00 27.96    -0.048 C 
ATOM     12  C06 CBD B1001     138.526 168.522 184.970  1.00 27.96     0.022 C 
ATOM     13  C13 CBD B1001     135.949 168.222 185.272  1.00 27.96     0.026 C 
ATOM     14  C05 CBD B1001     139.484 168.072 183.846  1.00 27.96     0.009 C 
ATOM     15  C03 CBD B1001     139.058 168.441 182.413  1.00 27.96     0.027 C 
BRANCH  15  16
ATOM     16  C10 CBD B1001     139.955 167.611 181.488  1.00 27.96    -0.044 C 
ATOM     17  C19 CBD B1001     140.333 168.087 180.301  1.00 27.96    -0.009 C 
ATOM     18  C14 CBD B1001     140.386 166.198 181.928  1.00 27.96     0.026 C 
ENDBRANCH  15  16
ENDBRANCH   1   9
BRANCH   4  19
ATOM     19  C18 CBD B1001     134.332 168.564 177.355  1.00 27.96     0.026 C 
BRANCH  19  20
ATOM     20  C20 CBD B1001     134.539 169.932 176.652  1.00 27.96     0.005 C 
BRANCH  20  21
ATOM     21  C21 CBD B1001     134.382 169.771 175.112  1.00 27.96     0.000 C 
BRANCH  21  22
ATOM     22  C22 CBD B1001     135.317 170.775 174.396  1.00 27.96     0.000 C 
ATOM     23  C23 CBD B1001     135.917 171.747 175.442  1.00 27.96     0.000 C 
ENDBRANCH  21  22
ENDBRANCH  20  21
ENDBRANCH  19  20
ENDBRANCH   4  19
TORSDOF 6
ENDMDL
