MODEL 1
REMARK VINA RESULT:      -5.9      0.000      0.000
REMARK  6 active torsions:
REMARK  status: ('A' for Active; 'I' for Inactive)
REMARK    1  A    between atoms: C03_1  and  C10_8 
REMARK    2  A    between atoms: C04_2  and  C08_6 
REMARK    3  A    between atoms: C15_13  and  C18_16 
REMARK    4  A    between atoms: C18_16  and  C20_18 
REMARK    5  A    between atoms: C20_18  and  C21_19 
REMARK    6  A    between atoms: C21_19  and  C22_20 
ROOT
ATOM      1  C08 CBD B1001     142.520 113.180 167.872  1.00 27.96     0.033 A 
ATOM      2  C11 CBD B1001     143.381 112.187 168.324  1.00 27.96     0.129 A 
ATOM      3  C12 CBD B1001     141.861 113.010 166.646  1.00 27.96     0.129 A 
ATOM      4  C15 CBD B1001     143.003 110.892 166.335  1.00 27.96    -0.018 A 
ATOM      5  C16 CBD B1001     143.639 111.054 167.559  1.00 27.96     0.023 A 
ATOM      6  C17 CBD B1001     142.118 111.869 165.876  1.00 27.96     0.023 A 
ATOM      7  O01 CBD B1001     144.017 112.366 169.561  1.00 27.96    -0.190 OA
ATOM      8  O02 CBD B1001     140.963 113.966 166.146  1.00 27.96    -0.190 OA
ENDROOT
BRANCH   1   9
ATOM      9  C04 CBD B1001     142.325 114.355 168.860  1.00 27.96     0.051 C 
ATOM     10  C07 CBD B1001     140.834 114.385 169.119  1.00 27.96    -0.030 C 
ATOM     11  C09 CBD B1001     140.472 115.046 170.190  1.00 27.96    -0.048 C 
ATOM     12  C06 CBD B1001     141.088 116.417 170.481  1.00 27.96     0.022 C 
ATOM     13  C13 CBD B1001     140.029 114.207 171.385  1.00 27.96     0.026 C 
ATOM     14  C05 CBD B1001     142.415 116.688 169.740  1.00 27.96     0.009 C 
ATOM     15  C03 CBD B1001     142.690 115.803 168.511  1.00 27.96     0.027 C 
BRANCH  15  16
ATOM     16  C10 CBD B1001     144.170 116.015 168.172  1.00 27.96    -0.044 C 
ATOM     17  C19 CBD B1001     145.126 115.479 168.933  1.00 27.96    -0.009 C 
ATOM     18  C14 CBD B1001     144.546 116.891 166.960  1.00 27.96     0.026 C 
ENDBRANCH  15  16
ENDBRANCH   1   9
BRANCH   4  19
ATOM     19  C18 CBD B1001     143.303 109.622 165.500  1.00 27.96     0.026 C 
BRANCH  19  20
ATOM     20  C20 CBD B1001     143.986 110.044 164.172  1.00 27.96     0.005 C 
BRANCH  20  21
ATOM     21  C21 CBD B1001     145.478 110.404 164.428  1.00 27.96     0.000 C 
BRANCH  21  22
ATOM     22  C22 CBD B1001     145.772 111.806 163.842  1.00 27.96     0.000 C 
ATOM     23  C23 CBD B1001     145.754 112.850 164.986  1.00 27.96     0.000 C 
ENDBRANCH  21  22
ENDBRANCH  20  21
ENDBRANCH  19  20
ENDBRANCH   4  19
TORSDOF 6
ENDMDL
MODEL 2
REMARK VINA RESULT:      -5.9      1.913      6.627
REMARK  6 active torsions:
REMARK  status: ('A' for Active; 'I' for Inactive)
REMARK    1  A    between atoms: C03_1  and  C10_8 
REMARK    2  A    between atoms: C04_2  and  C08_6 
REMARK    3  A    between atoms: C15_13  and  C18_16 
REMARK    4  A    between atoms: C18_16  and  C20_18 
REMARK    5  A    between atoms: C20_18  and  C21_19 
REMARK    6  A    between atoms: C21_19  and  C22_20 
ROOT
ATOM      1  C08 CBD B1001     142.771 114.906 167.232  1.00 27.96     0.033 A 
ATOM      2  C11 CBD B1001     141.509 114.343 167.088  1.00 27.96     0.129 A 
ATOM      3  C12 CBD B1001     143.175 115.372 168.492  1.00 27.96     0.129 A 
ATOM      4  C15 CBD B1001     141.010 114.759 169.402  1.00 27.96    -0.018 A 
ATOM      5  C16 CBD B1001     140.621 114.281 168.157  1.00 27.96     0.023 A 
ATOM      6  C17 CBD B1001     142.284 115.307 169.570  1.00 27.96     0.023 A 
ATOM      7  O01 CBD B1001     141.129 113.866 165.826  1.00 27.96    -0.190 OA
ATOM      8  O02 CBD B1001     144.444 115.930 168.706  1.00 27.96    -0.190 OA
ENDROOT
BRANCH   1   9
ATOM      9  C04 CBD B1001     143.638 114.867 165.951  1.00 27.96     0.051 C 
ATOM     10  C07 CBD B1001     144.486 113.623 166.107  1.00 27.96    -0.030 C 
ATOM     11  C09 CBD B1001     145.027 113.181 165.000  1.00 27.96    -0.048 C 
ATOM     12  C06 CBD B1001     145.701 114.163 164.039  1.00 27.96     0.022 C 
ATOM     13  C13 CBD B1001     144.407 111.923 164.399  1.00 27.96     0.026 C 
ATOM     14  C05 CBD B1001     145.275 115.634 164.231  1.00 27.96     0.009 C 
ATOM     15  C03 CBD B1001     144.634 115.975 165.589  1.00 27.96     0.027 C 
BRANCH  15  16
ATOM     16  C10 CBD B1001     144.000 117.359 165.410  1.00 27.96    -0.044 C 
ATOM     17  C19 CBD B1001     142.980 117.536 164.567  1.00 27.96    -0.009 C 
ATOM     18  C14 CBD B1001     144.579 118.558 166.186  1.00 27.96     0.026 C 
ENDBRANCH  15  16
ENDBRANCH   1   9
BRANCH   4  19
ATOM     19  C18 CBD B1001     140.008 114.678 170.580  1.00 27.96     0.026 C 
BRANCH  19  20
ATOM     20  C20 CBD B1001     140.205 115.917 171.494  1.00 27.96     0.005 C 
BRANCH  20  21
ATOM     21  C21 CBD B1001     139.802 115.573 172.957  1.00 27.96     0.000 C 
BRANCH  21  22
ATOM     22  C22 CBD B1001     139.832 114.038 173.146  1.00 27.96     0.000 C 
ATOM     23  C23 CBD B1001     140.222 113.712 174.609  1.00 27.96     0.000 C 
ENDBRANCH  21  22
ENDBRANCH  20  21
ENDBRANCH  19  20
ENDBRANCH   4  19
TORSDOF 6
ENDMDL
MODEL 3
REMARK VINA RESULT:      -5.7     14.832     17.402
REMARK  6 active torsions:
REMARK  status: ('A' for Active; 'I' for Inactive)
REMARK    1  A    between atoms: C03_1  and  C10_8 
REMARK    2  A    between atoms: C04_2  and  C08_6 
REMARK    3  A    between atoms: C15_13  and  C18_16 
REMARK    4  A    between atoms: C18_16  and  C20_18 
REMARK    5  A    between atoms: C20_18  and  C21_19 
REMARK    6  A    between atoms: C21_19  and  C22_20 
ROOT
ATOM      1  C08 CBD B1001     159.074 111.921 166.356  1.00 27.96     0.033 A 
ATOM      2  C11 CBD B1001     158.239 112.737 167.111  1.00 27.96     0.129 A 
ATOM      3  C12 CBD B1001     159.780 112.475 165.278  1.00 27.96     0.129 A 
ATOM      4  C15 CBD B1001     158.736 114.623 165.708  1.00 27.96    -0.018 A 
ATOM      5  C16 CBD B1001     158.053 114.076 166.786  1.00 27.96     0.023 A 
ATOM      6  C17 CBD B1001     159.596 113.824 164.952  1.00 27.96     0.023 A 
ATOM      7  O01 CBD B1001     157.555 112.170 168.196  1.00 27.96    -0.190 OA
ATOM      8  O02 CBD B1001     160.654 111.709 164.491  1.00 27.96    -0.190 OA
ENDROOT
BRANCH   1   9
ATOM      9  C04 CBD B1001     159.187 110.468 166.874  1.00 27.96     0.051 C 
ATOM     10  C07 CBD B1001     160.455 110.461 167.700  1.00 27.96    -0.030 C 
ATOM     11  C09 CBD B1001     160.567 109.455 168.532  1.00 27.96    -0.048 C 
ATOM     12  C06 CBD B1001     160.237 108.038 168.058  1.00 27.96     0.022 C 
ATOM     13  C13 CBD B1001     160.351 109.772 170.009  1.00 27.96     0.026 C 
ATOM     14  C05 CBD B1001     159.358 107.980 166.790  1.00 27.96     0.009 C 
ATOM     15  C03 CBD B1001     159.326 109.261 165.937  1.00 27.96     0.027 C 
BRANCH  15  16
ATOM     16  C10 CBD B1001     158.154 109.081 164.965  1.00 27.96    -0.044 C 
ATOM     17  C19 CBD B1001     158.343 109.179 163.648  1.00 27.96    -0.009 C 
ATOM     18  C14 CBD B1001     156.743 108.822 165.527  1.00 27.96     0.026 C 
ENDBRANCH  15  16
ENDBRANCH   1   9
BRANCH   4  19
ATOM     19  C18 CBD B1001     158.516 116.117 165.364  1.00 27.96     0.026 C 
BRANCH  19  20
ATOM     20  C20 CBD B1001     159.000 116.376 163.912  1.00 27.96     0.005 C 
BRANCH  20  21
ATOM     21  C21 CBD B1001     159.526 117.834 163.775  1.00 27.96     0.000 C 
BRANCH  21  22
ATOM     22  C22 CBD B1001     160.595 118.095 164.862  1.00 27.96     0.000 C 
ATOM     23  C23 CBD B1001     161.410 119.355 164.483  1.00 27.96     0.000 C 
ENDBRANCH  21  22
ENDBRANCH  20  21
ENDBRANCH  19  20
ENDBRANCH   4  19
TORSDOF 6
ENDMDL
MODEL 4
REMARK VINA RESULT:      -5.6     14.836     17.684
REMARK  6 active torsions:
REMARK  status: ('A' for Active; 'I' for Inactive)
REMARK    1  A    between atoms: C03_1  and  C10_8 
REMARK    2  A    between atoms: C04_2  and  C08_6 
REMARK    3  A    between atoms: C15_13  and  C18_16 
REMARK    4  A    between atoms: C18_16  and  C20_18 
REMARK    5  A    between atoms: C20_18  and  C21_19 
REMARK    6  A    between atoms: C21_19  and  C22_20 
ROOT
ATOM      1  C08 CBD B1001     159.846 116.619 167.988  1.00 27.96     0.033 A 
ATOM      2  C11 CBD B1001     161.031 116.171 168.559  1.00 27.96     0.129 A 
ATOM      3  C12 CBD B1001     158.742 116.875 168.814  1.00 27.96     0.129 A 
ATOM      4  C15 CBD B1001     160.028 116.157 170.743  1.00 27.96    -0.018 A 
ATOM      5  C16 CBD B1001     161.126 115.923 169.924  1.00 27.96     0.023 A 
ATOM      6  C17 CBD B1001     158.836 116.628 170.189  1.00 27.96     0.023 A 
ATOM      7  O01 CBD B1001     162.131 115.938 167.720  1.00 27.96    -0.190 OA
ATOM      8  O02 CBD B1001     157.525 117.349 168.301  1.00 27.96    -0.190 OA
ENDROOT
BRANCH   1   9
ATOM      9  C04 CBD B1001     159.926 116.870 166.463  1.00 27.96     0.051 C 
ATOM     10  C07 CBD B1001     159.884 118.377 166.328  1.00 27.96    -0.030 C 
ATOM     11  C09 CBD B1001     160.303 118.840 165.176  1.00 27.96    -0.048 C 
ATOM     12  C06 CBD B1001     159.837 118.178 163.877  1.00 27.96     0.022 C 
ATOM     13  C13 CBD B1001     161.676 119.504 165.174  1.00 27.96     0.026 C 
ATOM     14  C05 CBD B1001     159.292 116.745 164.053  1.00 27.96     0.009 C 
ATOM     15  C03 CBD B1001     158.864 116.360 165.482  1.00 27.96     0.027 C 
BRANCH  15  16
ATOM     16  C10 CBD B1001     158.699 114.836 165.467  1.00 27.96    -0.044 C 
ATOM     17  C19 CBD B1001     159.108 114.118 164.420  1.00 27.96    -0.009 C 
ATOM     18  C14 CBD B1001     158.016 114.142 166.662  1.00 27.96     0.026 C 
ENDBRANCH  15  16
ENDBRANCH   1   9
BRANCH   4  19
ATOM     19  C18 CBD B1001     160.154 115.876 172.261  1.00 27.96     0.026 C 
BRANCH  19  20
ATOM     20  C20 CBD B1001     158.886 115.120 172.740  1.00 27.96     0.005 C 
BRANCH  20  21
ATOM     21  C21 CBD B1001     159.023 113.600 172.437  1.00 27.96     0.000 C 
BRANCH  21  22
ATOM     22  C22 CBD B1001     157.770 113.118 171.668  1.00 27.96     0.000 C 
ATOM     23  C23 CBD B1001     156.600 112.934 172.666  1.00 27.96     0.000 C 
ENDBRANCH  21  22
ENDBRANCH  20  21
ENDBRANCH  19  20
ENDBRANCH   4  19
TORSDOF 6
ENDMDL
MODEL 5
REMARK VINA RESULT:      -5.5     26.329     28.924
REMARK  6 active torsions:
REMARK  status: ('A' for Active; 'I' for Inactive)
REMARK    1  A    between atoms: C03_1  and  C10_8 
REMARK    2  A    between atoms: C04_2  and  C08_6 
REMARK    3  A    between atoms: C15_13  and  C18_16 
REMARK    4  A    between atoms: C18_16  and  C20_18 
REMARK    5  A    between atoms: C20_18  and  C21_19 
REMARK    6  A    between atoms: C21_19  and  C22_20 
ROOT
ATOM      1  C08 CBD B1001     146.594 114.340 195.310  1.00 27.96     0.033 A 
ATOM      2  C11 CBD B1001     147.423 113.224 195.306  1.00 27.96     0.129 A 
ATOM      3  C12 CBD B1001     147.119 115.584 194.932  1.00 27.96     0.129 A 
ATOM      4  C15 CBD B1001     149.300 114.563 194.629  1.00 27.96    -0.018 A 
ATOM      5  C16 CBD B1001     148.772 113.328 194.985  1.00 27.96     0.023 A 
ATOM      6  C17 CBD B1001     148.476 115.690 194.606  1.00 27.96     0.023 A 
ATOM      7  O01 CBD B1001     146.876 111.984 195.669  1.00 27.96    -0.190 OA
ATOM      8  O02 CBD B1001     146.329 116.743 194.895  1.00 27.96    -0.190 OA
ENDROOT
BRANCH   1   9
ATOM      9  C04 CBD B1001     145.118 114.038 195.663  1.00 27.96     0.051 C 
ATOM     10  C07 CBD B1001     144.370 114.252 194.364  1.00 27.96    -0.030 C 
ATOM     11  C09 CBD B1001     143.178 113.710 194.317  1.00 27.96    -0.048 C 
ATOM     12  C06 CBD B1001     142.228 113.862 195.507  1.00 27.96     0.022 C 
ATOM     13  C13 CBD B1001     143.041 112.453 193.463  1.00 27.96     0.026 C 
ATOM     14  C05 CBD B1001     142.923 114.238 196.833  1.00 27.96     0.009 C 
ATOM     15  C03 CBD B1001     144.332 114.845 196.703  1.00 27.96     0.027 C 
BRANCH  15  16
ATOM     16  C10 CBD B1001     144.930 114.807 198.114  1.00 27.96    -0.044 C 
ATOM     17  C19 CBD B1001     145.594 115.857 198.600  1.00 27.96    -0.009 C 
ATOM     18  C14 CBD B1001     144.791 113.523 198.955  1.00 27.96     0.026 C 
ENDBRANCH  15  16
ENDBRANCH   1   9
BRANCH   4  19
ATOM     19  C18 CBD B1001     150.804 114.658 194.273  1.00 27.96     0.026 C 
BRANCH  19  20
ATOM     20  C20 CBD B1001     151.478 115.695 195.210  1.00 27.96     0.005 C 
BRANCH  20  21
ATOM     21  C21 CBD B1001     151.428 115.196 196.683  1.00 27.96     0.000 C 
BRANCH  21  22
ATOM     22  C22 CBD B1001     150.807 116.299 197.574  1.00 27.96     0.000 C 
ATOM     23  C23 CBD B1001     149.479 115.780 198.175  1.00 27.96     0.000 C 
ENDBRANCH  21  22
ENDBRANCH  20  21
ENDBRANCH  19  20
ENDBRANCH   4  19
TORSDOF 6
ENDMDL
MODEL 6
REMARK VINA RESULT:      -5.5     14.885     17.557
REMARK  6 active torsions:
REMARK  status: ('A' for Active; 'I' for Inactive)
REMARK    1  A    between atoms: C03_1  and  C10_8 
REMARK    2  A    between atoms: C04_2  and  C08_6 
REMARK    3  A    between atoms: C15_13  and  C18_16 
REMARK    4  A    between atoms: C18_16  and  C20_18 
REMARK    5  A    between atoms: C20_18  and  C21_19 
REMARK    6  A    between atoms: C21_19  and  C22_20 
ROOT
ATOM      1  C08 CBD B1001     160.328 114.969 165.474  1.00 27.96     0.033 A 
ATOM      2  C11 CBD B1001     159.523 114.437 164.474  1.00 27.96     0.129 A 
ATOM      3  C12 CBD B1001     161.195 114.122 166.179  1.00 27.96     0.129 A 
ATOM      4  C15 CBD B1001     160.368 112.229 164.906  1.00 27.96    -0.018 A 
ATOM      5  C16 CBD B1001     159.524 113.074 164.196  1.00 27.96     0.023 A 
ATOM      6  C17 CBD B1001     161.200 112.750 165.899  1.00 27.96     0.023 A 
ATOM      7  O01 CBD B1001     158.675 115.302 163.767  1.00 27.96    -0.190 OA
ATOM      8  O02 CBD B1001     162.048 114.602 167.185  1.00 27.96    -0.190 OA
ENDROOT
BRANCH   1   9
ATOM      9  C04 CBD B1001     160.223 116.505 165.630  1.00 27.96     0.051 C 
ATOM     10  C07 CBD B1001     161.435 117.041 164.900  1.00 27.96    -0.030 C 
ATOM     11  C09 CBD B1001     161.372 118.310 164.581  1.00 27.96    -0.048 C 
ATOM     12  C06 CBD B1001     160.882 119.329 165.612  1.00 27.96     0.022 C 
ATOM     13  C13 CBD B1001     161.125 118.625 163.108  1.00 27.96     0.026 C 
ATOM     14  C05 CBD B1001     160.068 118.718 166.773  1.00 27.96     0.009 C 
ATOM     15  C03 CBD B1001     160.248 117.205 166.994  1.00 27.96     0.027 C 
BRANCH  15  16
ATOM     16  C10 CBD B1001     159.113 116.788 167.937  1.00 27.96    -0.044 C 
ATOM     17  C19 CBD B1001     159.240 116.928 169.258  1.00 27.96    -0.009 C 
ATOM     18  C14 CBD B1001     157.833 116.165 167.346  1.00 27.96     0.026 C 
ENDBRANCH  15  16
ENDBRANCH   1   9
BRANCH   4  19
ATOM     19  C18 CBD B1001     160.355 110.715 164.580  1.00 27.96     0.026 C 
BRANCH  19  20
ATOM     20  C20 CBD B1001     159.330 110.453 163.445  1.00 27.96     0.005 C 
BRANCH  20  21
ATOM     21  C21 CBD B1001     158.501 109.174 163.758  1.00 27.96     0.000 C 
BRANCH  21  22
ATOM     22  C22 CBD B1001     158.285 109.067 165.286  1.00 27.96     0.000 C 
ATOM     23  C23 CBD B1001     156.805 108.709 165.568  1.00 27.96     0.000 C 
ENDBRANCH  21  22
ENDBRANCH  20  21
ENDBRANCH  19  20
ENDBRANCH   4  19
TORSDOF 6
ENDMDL
MODEL 7
REMARK VINA RESULT:      -5.5     26.996     29.333
REMARK  6 active torsions:
REMARK  status: ('A' for Active; 'I' for Inactive)
REMARK    1  A    between atoms: C03_1  and  C10_8 
REMARK    2  A    between atoms: C04_2  and  C08_6 
REMARK    3  A    between atoms: C15_13  and  C18_16 
REMARK    4  A    between atoms: C18_16  and  C20_18 
REMARK    5  A    between atoms: C20_18  and  C21_19 
REMARK    6  A    between atoms: C21_19  and  C22_20 
ROOT
ATOM      1  C08 CBD B1001     147.399 114.590 196.245  1.00 27.96     0.033 A 
ATOM      2  C11 CBD B1001     146.641 113.450 196.485  1.00 27.96     0.129 A 
ATOM      3  C12 CBD B1001     146.890 115.587 195.400  1.00 27.96     0.129 A 
ATOM      4  C15 CBD B1001     144.913 114.234 195.011  1.00 27.96    -0.018 A 
ATOM      5  C16 CBD B1001     145.412 113.257 195.863  1.00 27.96     0.023 A 
ATOM      6  C17 CBD B1001     145.651 115.396 194.776  1.00 27.96     0.023 A 
ATOM      7  O01 CBD B1001     147.159 112.473 197.347  1.00 27.96    -0.190 OA
ATOM      8  O02 CBD B1001     147.597 116.769 195.136  1.00 27.96    -0.190 OA
ENDROOT
BRANCH   1   9
ATOM      9  C04 CBD B1001     148.725 114.655 197.040  1.00 27.96     0.051 C 
ATOM     10  C07 CBD B1001     148.483 115.720 198.088  1.00 27.96    -0.030 C 
ATOM     11  C09 CBD B1001     149.315 115.698 199.100  1.00 27.96    -0.048 C 
ATOM     12  C06 CBD B1001     150.815 115.536 198.846  1.00 27.96     0.022 C 
ATOM     13  C13 CBD B1001     148.762 115.163 200.418  1.00 27.96     0.026 C 
ATOM     14  C05 CBD B1001     151.167 114.947 197.463  1.00 27.96     0.009 C 
ATOM     15  C03 CBD B1001     150.062 115.039 196.395  1.00 27.96     0.027 C 
BRANCH  15  16
ATOM     16  C10 CBD B1001     150.506 114.106 195.261  1.00 27.96    -0.044 C 
ATOM     17  C19 CBD B1001     150.968 114.604 194.113  1.00 27.96    -0.009 C 
ATOM     18  C14 CBD B1001     150.374 112.582 195.446  1.00 27.96     0.026 C 
ENDBRANCH  15  16
ENDBRANCH   1   9
BRANCH   4  19
ATOM     19  C18 CBD B1001     143.541 114.001 194.330  1.00 27.96     0.026 C 
BRANCH  19  20
ATOM     20  C20 CBD B1001     142.425 114.085 195.405  1.00 27.96     0.005 C 
BRANCH  20  21
ATOM     21  C21 CBD B1001     141.437 112.894 195.244  1.00 27.96     0.000 C 
BRANCH  21  22
ATOM     22  C22 CBD B1001     141.960 111.942 194.142  1.00 27.96     0.000 C 
ATOM     23  C23 CBD B1001     142.260 110.557 194.764  1.00 27.96     0.000 C 
ENDBRANCH  21  22
ENDBRANCH  20  21
ENDBRANCH  19  20
ENDBRANCH   4  19
TORSDOF 6
ENDMDL
MODEL 8
REMARK VINA RESULT:      -5.4     14.900     17.733
REMARK  6 active torsions:
REMARK  status: ('A' for Active; 'I' for Inactive)
REMARK    1  A    between atoms: C03_1  and  C10_8 
REMARK    2  A    between atoms: C04_2  and  C08_6 
REMARK    3  A    between atoms: C15_13  and  C18_16 
REMARK    4  A    between atoms: C18_16  and  C20_18 
REMARK    5  A    between atoms: C20_18  and  C21_19 
REMARK    6  A    between atoms: C21_19  and  C22_20 
ROOT
ATOM      1  C08 CBD B1001     159.446 116.838 167.475  1.00 27.96     0.033 A 
ATOM      2  C11 CBD B1001     158.364 117.272 168.232  1.00 27.96     0.129 A 
ATOM      3  C12 CBD B1001     160.737 117.269 167.814  1.00 27.96     0.129 A 
ATOM      4  C15 CBD B1001     159.808 118.610 169.611  1.00 27.96    -0.018 A 
ATOM      5  C16 CBD B1001     158.533 118.166 169.285  1.00 27.96     0.023 A 
ATOM      6  C17 CBD B1001     160.908 118.166 168.875  1.00 27.96     0.023 A 
ATOM      7  O01 CBD B1001     157.083 116.816 167.890  1.00 27.96    -0.190 OA
ATOM      8  O02 CBD B1001     161.871 116.849 167.103  1.00 27.96    -0.190 OA
ENDROOT
BRANCH   1   9
ATOM      9  C04 CBD B1001     159.083 115.825 166.364  1.00 27.96     0.051 C 
ATOM     10  C07 CBD B1001     159.407 114.474 166.965  1.00 27.96    -0.030 C 
ATOM     11  C09 CBD B1001     158.848 113.453 166.364  1.00 27.96    -0.048 C 
ATOM     12  C06 CBD B1001     158.865 113.370 164.836  1.00 27.96     0.022 C 
ATOM     13  C13 CBD B1001     157.678 112.798 167.091  1.00 27.96     0.026 C 
ATOM     14  C05 CBD B1001     159.124 114.718 164.128  1.00 27.96     0.009 C 
ATOM     15  C03 CBD B1001     159.769 115.816 164.992  1.00 27.96     0.027 C 
BRANCH  15  16
ATOM     16  C10 CBD B1001     159.606 117.117 164.197  1.00 27.96    -0.044 C 
ATOM     17  C19 CBD B1001     158.426 117.445 163.666  1.00 27.96    -0.009 C 
ATOM     18  C14 CBD B1001     160.831 118.026 163.981  1.00 27.96     0.026 C 
ENDBRANCH  15  16
ENDBRANCH   1   9
BRANCH   4  19
ATOM     19  C18 CBD B1001     159.974 119.604 170.788  1.00 27.96     0.026 C 
BRANCH  19  20
ATOM     20  C20 CBD B1001     159.044 119.166 171.951  1.00 27.96     0.005 C 
BRANCH  20  21
ATOM     21  C21 CBD B1001     159.675 117.970 172.719  1.00 27.96     0.000 C 
BRANCH  21  22
ATOM     22  C22 CBD B1001     158.555 117.169 173.425  1.00 27.96     0.000 C 
ATOM     23  C23 CBD B1001     157.297 117.150 172.523  1.00 27.96     0.000 C 
ENDBRANCH  21  22
ENDBRANCH  20  21
ENDBRANCH  19  20
ENDBRANCH   4  19
TORSDOF 6
ENDMDL
MODEL 9
REMARK VINA RESULT:      -5.3      1.547      6.766
REMARK  6 active torsions:
REMARK  status: ('A' for Active; 'I' for Inactive)
REMARK    1  A    between atoms: C03_1  and  C10_8 
REMARK    2  A    between atoms: C04_2  and  C08_6 
REMARK    3  A    between atoms: C15_13  and  C18_16 
REMARK    4  A    between atoms: C18_16  and  C20_18 
REMARK    5  A    between atoms: C20_18  and  C21_19 
REMARK    6  A    between atoms: C21_19  and  C22_20 
ROOT
ATOM      1  C08 CBD B1001     142.958 112.487 167.453  1.00 27.96     0.033 A 
ATOM      2  C11 CBD B1001     141.602 112.779 167.364  1.00 27.96     0.129 A 
ATOM      3  C12 CBD B1001     143.743 113.158 168.401  1.00 27.96     0.129 A 
ATOM      4  C15 CBD B1001     141.802 114.441 169.089  1.00 27.96    -0.018 A 
ATOM      5  C16 CBD B1001     141.022 113.760 168.162  1.00 27.96     0.023 A 
ATOM      6  C17 CBD B1001     143.161 114.144 169.207  1.00 27.96     0.023 A 
ATOM      7  O01 CBD B1001     140.829 112.085 166.423  1.00 27.96    -0.190 OA
ATOM      8  O02 CBD B1001     145.113 112.892 168.554  1.00 27.96    -0.190 OA
ENDROOT
BRANCH   1   9
ATOM      9  C04 CBD B1001     143.429 111.350 166.515  1.00 27.96     0.051 C 
ATOM     10  C07 CBD B1001     143.600 110.155 167.428  1.00 27.96    -0.030 C 
ATOM     11  C09 CBD B1001     143.636 108.996 166.819  1.00 27.96    -0.048 C 
ATOM     12  C06 CBD B1001     144.488 108.825 165.559  1.00 27.96     0.022 C 
ATOM     13  C13 CBD B1001     142.389 108.125 166.948  1.00 27.96     0.026 C 
ATOM     14  C05 CBD B1001     144.856 110.150 164.857  1.00 27.96     0.009 C 
ATOM     15  C03 CBD B1001     144.736 111.421 165.716  1.00 27.96     0.027 C 
BRANCH  15  16
ATOM     16  C10 CBD B1001     144.810 112.594 164.731  1.00 27.96    -0.044 C 
ATOM     17  C19 CBD B1001     143.703 113.078 164.166  1.00 27.96    -0.009 C 
ATOM     18  C14 CBD B1001     146.186 113.186 164.369  1.00 27.96     0.026 C 
ENDBRANCH  15  16
ENDBRANCH   1   9
BRANCH   4  19
ATOM     19  C18 CBD B1001     141.137 115.529 169.969  1.00 27.96     0.026 C 
BRANCH  19  20
ATOM     20  C20 CBD B1001     139.881 114.925 170.652  1.00 27.96     0.005 C 
BRANCH  20  21
ATOM     21  C21 CBD B1001     139.882 115.267 172.170  1.00 27.96     0.000 C 
BRANCH  21  22
ATOM     22  C22 CBD B1001     139.668 113.970 172.985  1.00 27.96     0.000 C 
ATOM     23  C23 CBD B1001     140.212 114.175 174.420  1.00 27.96     0.000 C 
ENDBRANCH  21  22
ENDBRANCH  20  21
ENDBRANCH  19  20
ENDBRANCH   4  19
TORSDOF 6
ENDMDL
