MODEL 1
REMARK VINA RESULT:      51.4      0.000      0.000
REMARK  6 active torsions:
REMARK  status: ('A' for Active; 'I' for Inactive)
REMARK    1  A    between atoms: C03_1  and  C10_8 
REMARK    2  A    between atoms: C04_2  and  C08_6 
REMARK    3  A    between atoms: C15_13  and  C18_16 
REMARK    4  A    between atoms: C18_16  and  C20_18 
REMARK    5  A    between atoms: C20_18  and  C21_19 
REMARK    6  A    between atoms: C21_19  and  C22_20 
ROOT
ATOM      1  C08 CBD B1001     148.128 142.104 176.043  1.00 27.96     0.033 A 
ATOM      2  C11 CBD B1001     149.063 142.937 175.440  1.00 27.96     0.129 A 
ATOM      3  C12 CBD B1001     148.104 141.999 177.441  1.00 27.96     0.129 A 
ATOM      4  C15 CBD B1001     149.999 143.509 177.578  1.00 27.96    -0.018 A 
ATOM      5  C16 CBD B1001     150.006 143.627 176.194  1.00 27.96     0.023 A 
ATOM      6  C17 CBD B1001     149.052 142.694 178.202  1.00 27.96     0.023 A 
ATOM      7  O01 CBD B1001     149.059 143.045 174.042  1.00 27.96    -0.190 OA
ATOM      8  O02 CBD B1001     147.171 141.192 178.110  1.00 27.96    -0.190 OA
ENDROOT
BRANCH   1   9
ATOM      9  C04 CBD B1001     147.136 141.439 175.058  1.00 27.96     0.051 C 
ATOM     10  C07 CBD B1001     147.941 140.339 174.401  1.00 27.96    -0.030 C 
ATOM     11  C09 CBD B1001     147.229 139.413 173.807  1.00 27.96    -0.048 C 
ATOM     12  C06 CBD B1001     146.053 139.815 172.914  1.00 27.96     0.022 C 
ATOM     13  C13 CBD B1001     147.143 138.066 174.519  1.00 27.96     0.026 C 
ATOM     14  C05 CBD B1001     145.525 141.244 173.163  1.00 27.96     0.009 C 
ATOM     15  C03 CBD B1001     146.488 142.197 173.894  1.00 27.96     0.027 C 
BRANCH  15  16
ATOM     16  C10 CBD B1001     145.635 143.398 174.321  1.00 27.96    -0.044 C 
ATOM     17  C19 CBD B1001     145.249 144.309 173.426  1.00 27.96    -0.009 C 
ATOM     18  C14 CBD B1001     145.261 143.565 175.806  1.00 27.96     0.026 C 
ENDBRANCH  15  16
ENDBRANCH   1   9
BRANCH   4  19
ATOM     19  C18 CBD B1001     151.057 144.287 178.400  1.00 27.96     0.026 C 
BRANCH  19  20
ATOM     20  C20 CBD B1001     152.106 143.282 178.947  1.00 27.96     0.005 C 
BRANCH  20  21
ATOM     21  C21 CBD B1001     153.400 144.036 179.369  1.00 27.96     0.000 C 
BRANCH  21  22
ATOM     22  C22 CBD B1001     154.405 144.023 178.192  1.00 27.96     0.000 C 
ATOM     23  C23 CBD B1001     154.095 142.817 177.272  1.00 27.96     0.000 C 
ENDBRANCH  21  22
ENDBRANCH  20  21
ENDBRANCH  19  20
ENDBRANCH   4  19
TORSDOF 6
ENDMDL
