MODEL 1
REMARK VINA RESULT:       0.6      0.000      0.000
REMARK  6 active torsions:
REMARK  status: ('A' for Active; 'I' for Inactive)
REMARK    1  A    between atoms: C03_1  and  C10_8 
REMARK    2  A    between atoms: C04_2  and  C08_6 
REMARK    3  A    between atoms: C15_13  and  C18_16 
REMARK    4  A    between atoms: C18_16  and  C20_18 
REMARK    5  A    between atoms: C20_18  and  C21_19 
REMARK    6  A    between atoms: C21_19  and  C22_20 
ROOT
ATOM      1  C08 CBD B1001     135.959 134.959 177.536  1.00 27.96     0.033 A 
ATOM      2  C11 CBD B1001     136.369 134.610 178.817  1.00 27.96     0.129 A 
ATOM      3  C12 CBD B1001     135.401 136.226 177.316  1.00 27.96     0.129 A 
ATOM      4  C15 CBD B1001     135.619 136.723 179.681  1.00 27.96    -0.018 A 
ATOM      5  C16 CBD B1001     136.189 135.474 179.892  1.00 27.96     0.023 A 
ATOM      6  C17 CBD B1001     135.221 137.099 178.396  1.00 27.96     0.023 A 
ATOM      7  O01 CBD B1001     136.941 133.345 179.015  1.00 27.96    -0.190 OA
ATOM      8  O02 CBD B1001     134.988 136.645 176.042  1.00 27.96    -0.190 OA
ENDROOT
BRANCH   1   9
ATOM      9  C04 CBD B1001     136.261 133.892 176.456  1.00 27.96     0.051 C 
ATOM     10  C07 CBD B1001     135.704 134.482 175.178  1.00 27.96    -0.030 C 
ATOM     11  C09 CBD B1001     136.159 133.941 174.075  1.00 27.96    -0.048 C 
ATOM     12  C06 CBD B1001     136.249 132.417 173.959  1.00 27.96     0.022 C 
ATOM     13  C13 CBD B1001     137.164 134.768 173.280  1.00 27.96     0.026 C 
ATOM     14  C05 CBD B1001     136.238 131.674 175.313  1.00 27.96     0.009 C 
ATOM     15  C03 CBD B1001     135.689 132.470 176.510  1.00 27.96     0.027 C 
BRANCH  15  16
ATOM     16  C10 CBD B1001     136.096 131.675 177.756  1.00 27.96    -0.044 C 
ATOM     17  C19 CBD B1001     137.360 131.288 177.933  1.00 27.96    -0.009 C 
ATOM     18  C14 CBD B1001     135.018 131.290 178.788  1.00 27.96     0.026 C 
ENDBRANCH  15  16
ENDBRANCH   1   9
BRANCH   4  19
ATOM     19  C18 CBD B1001     135.428 137.672 180.891  1.00 27.96     0.026 C 
BRANCH  19  20
ATOM     20  C20 CBD B1001     136.494 138.798 180.820  1.00 27.96     0.005 C 
BRANCH  20  21
ATOM     21  C21 CBD B1001     135.812 140.161 180.508  1.00 27.96     0.000 C 
BRANCH  21  22
ATOM     22  C22 CBD B1001     136.571 140.858 179.354  1.00 27.96     0.000 C 
ATOM     23  C23 CBD B1001     135.711 140.797 178.068  1.00 27.96     0.000 C 
ENDBRANCH  21  22
ENDBRANCH  20  21
ENDBRANCH  19  20
ENDBRANCH   4  19
TORSDOF 6
ENDMDL
MODEL 2
REMARK VINA RESULT:       1.6      1.245      3.217
REMARK  6 active torsions:
REMARK  status: ('A' for Active; 'I' for Inactive)
REMARK    1  A    between atoms: C03_1  and  C10_8 
REMARK    2  A    between atoms: C04_2  and  C08_6 
REMARK    3  A    between atoms: C15_13  and  C18_16 
REMARK    4  A    between atoms: C18_16  and  C20_18 
REMARK    5  A    between atoms: C20_18  and  C21_19 
REMARK    6  A    between atoms: C21_19  and  C22_20 
ROOT
ATOM      1  C08 CBD B1001     135.487 135.535 177.642  1.00 27.96     0.033 A 
ATOM      2  C11 CBD B1001     135.681 135.809 178.990  1.00 27.96     0.129 A 
ATOM      3  C12 CBD B1001     135.176 136.585 176.767  1.00 27.96     0.129 A 
ATOM      4  C15 CBD B1001     135.196 138.135 178.634  1.00 27.96    -0.018 A 
ATOM      5  C16 CBD B1001     135.523 137.095 179.495  1.00 27.96     0.023 A 
ATOM      6  C17 CBD B1001     135.019 137.881 177.272  1.00 27.96     0.023 A 
ATOM      7  O01 CBD B1001     136.010 134.748 179.847  1.00 27.96    -0.190 OA
ATOM      8  O02 CBD B1001     134.989 136.377 175.392  1.00 27.96    -0.190 OA
ENDROOT
BRANCH   1   9
ATOM      9  C04 CBD B1001     135.733 134.059 177.247  1.00 27.96     0.051 C 
ATOM     10  C07 CBD B1001     136.371 133.443 178.474  1.00 27.96    -0.030 C 
ATOM     11  C09 CBD B1001     136.335 132.134 178.518  1.00 27.96    -0.048 C 
ATOM     12  C06 CBD B1001     136.694 131.323 177.271  1.00 27.96     0.022 C 
ATOM     13  C13 CBD B1001     135.339 131.517 179.496  1.00 27.96     0.026 C 
ATOM     14  C05 CBD B1001     136.613 132.118 175.950  1.00 27.96     0.009 C 
ATOM     15  C03 CBD B1001     136.647 133.651 176.086  1.00 27.96     0.027 C 
BRANCH  15  16
ATOM     16  C10 CBD B1001     136.213 134.197 174.720  1.00 27.96    -0.044 C 
ATOM     17  C19 CBD B1001     134.994 133.941 174.242  1.00 27.96    -0.009 C 
ATOM     18  C14 CBD B1001     137.216 135.014 173.883  1.00 27.96     0.026 C 
ENDBRANCH  15  16
ENDBRANCH   1   9
BRANCH   4  19
ATOM     19  C18 CBD B1001     135.025 139.561 179.216  1.00 27.96     0.026 C 
BRANCH  19  20
ATOM     20  C20 CBD B1001     135.820 139.660 180.545  1.00 27.96     0.005 C 
BRANCH  20  21
ATOM     21  C21 CBD B1001     136.880 140.795 180.451  1.00 27.96     0.000 C 
BRANCH  21  22
ATOM     22  C22 CBD B1001     138.295 140.171 180.434  1.00 27.96     0.000 C 
ATOM     23  C23 CBD B1001     139.351 141.299 180.539  1.00 27.96     0.000 C 
ENDBRANCH  21  22
ENDBRANCH  20  21
ENDBRANCH  19  20
ENDBRANCH   4  19
TORSDOF 6
ENDMDL
MODEL 3
REMARK VINA RESULT:       1.8      2.087      7.195
REMARK  6 active torsions:
REMARK  status: ('A' for Active; 'I' for Inactive)
REMARK    1  A    between atoms: C03_1  and  C10_8 
REMARK    2  A    between atoms: C04_2  and  C08_6 
REMARK    3  A    between atoms: C15_13  and  C18_16 
REMARK    4  A    between atoms: C18_16  and  C20_18 
REMARK    5  A    between atoms: C20_18  and  C21_19 
REMARK    6  A    between atoms: C21_19  and  C22_20 
ROOT
ATOM      1  C08 CBD B1001     137.212 137.030 179.531  1.00 27.96     0.033 A 
ATOM      2  C11 CBD B1001     136.011 136.806 178.868  1.00 27.96     0.129 A 
ATOM      3  C12 CBD B1001     137.910 135.941 180.071  1.00 27.96     0.129 A 
ATOM      4  C15 CBD B1001     136.144 134.451 179.328  1.00 27.96    -0.018 A 
ATOM      5  C16 CBD B1001     135.465 135.530 178.777  1.00 27.96     0.023 A 
ATOM      6  C17 CBD B1001     137.363 134.655 179.978  1.00 27.96     0.023 A 
ATOM      7  O01 CBD B1001     135.336 137.905 178.318  1.00 27.96    -0.190 OA
ATOM      8  O02 CBD B1001     139.138 136.099 180.732  1.00 27.96    -0.190 OA
ENDROOT
BRANCH   1   9
ATOM      9  C04 CBD B1001     137.687 138.503 179.512  1.00 27.96     0.051 C 
ATOM     10  C07 CBD B1001     139.197 138.411 179.543  1.00 27.96    -0.030 C 
ATOM     11  C09 CBD B1001     139.825 139.498 179.168  1.00 27.96    -0.048 C 
ATOM     12  C06 CBD B1001     139.366 140.860 179.695  1.00 27.96     0.022 C 
ATOM     13  C13 CBD B1001     140.476 139.461 177.789  1.00 27.96     0.026 C 
ATOM     14  C05 CBD B1001     137.925 140.875 180.248  1.00 27.96     0.009 C 
ATOM     15  C03 CBD B1001     137.334 139.503 180.619  1.00 27.96     0.027 C 
BRANCH  15  16
ATOM     16  C10 CBD B1001     135.830 139.737 180.801  1.00 27.96    -0.044 C 
ATOM     17  C19 CBD B1001     134.988 138.706 180.892  1.00 27.96    -0.009 C 
ATOM     18  C14 CBD B1001     135.292 141.180 180.839  1.00 27.96     0.026 C 
ENDBRANCH  15  16
ENDBRANCH   1   9
BRANCH   4  19
ATOM     19  C18 CBD B1001     135.520 133.038 179.214  1.00 27.96     0.026 C 
BRANCH  19  20
ATOM     20  C20 CBD B1001     136.393 132.178 178.262  1.00 27.96     0.005 C 
BRANCH  20  21
ATOM     21  C21 CBD B1001     135.825 132.238 176.815  1.00 27.96     0.000 C 
BRANCH  21  22
ATOM     22  C22 CBD B1001     136.992 132.135 175.805  1.00 27.96     0.000 C 
ATOM     23  C23 CBD B1001     138.226 131.522 176.511  1.00 27.96     0.000 C 
ENDBRANCH  21  22
ENDBRANCH  20  21
ENDBRANCH  19  20
ENDBRANCH   4  19
TORSDOF 6
ENDMDL
MODEL 4
REMARK VINA RESULT:       2.4      2.024      3.797
REMARK  6 active torsions:
REMARK  status: ('A' for Active; 'I' for Inactive)
REMARK    1  A    between atoms: C03_1  and  C10_8 
REMARK    2  A    between atoms: C04_2  and  C08_6 
REMARK    3  A    between atoms: C15_13  and  C18_16 
REMARK    4  A    between atoms: C18_16  and  C20_18 
REMARK    5  A    between atoms: C20_18  and  C21_19 
REMARK    6  A    between atoms: C21_19  and  C22_20 
ROOT
ATOM      1  C08 CBD B1001     136.773 135.181 178.939  1.00 27.96     0.033 A 
ATOM      2  C11 CBD B1001     136.222 135.797 180.056  1.00 27.96     0.129 A 
ATOM      3  C12 CBD B1001     138.016 135.618 178.458  1.00 27.96     0.129 A 
ATOM      4  C15 CBD B1001     138.079 137.318 180.189  1.00 27.96    -0.018 A 
ATOM      5  C16 CBD B1001     136.856 136.870 180.674  1.00 27.96     0.023 A 
ATOM      6  C17 CBD B1001     138.657 136.696 179.081  1.00 27.96     0.023 A 
ATOM      7  O01 CBD B1001     134.988 135.335 180.534  1.00 27.96    -0.190 OA
ATOM      8  O02 CBD B1001     138.633 135.023 177.347  1.00 27.96    -0.190 OA
ENDROOT
BRANCH   1   9
ATOM      9  C04 CBD B1001     135.950 133.988 178.397  1.00 27.96     0.051 C 
ATOM     10  C07 CBD B1001     136.509 132.785 179.126  1.00 27.96    -0.030 C 
ATOM     11  C09 CBD B1001     135.740 131.724 179.112  1.00 27.96    -0.048 C 
ATOM     12  C06 CBD B1001     135.072 131.288 177.806  1.00 27.96     0.022 C 
ATOM     13  C13 CBD B1001     135.019 131.394 180.415  1.00 27.96     0.026 C 
ATOM     14  C05 CBD B1001     134.988 132.396 176.734  1.00 27.96     0.009 C 
ATOM     15  C03 CBD B1001     135.951 133.582 176.918  1.00 27.96     0.027 C 
BRANCH  15  16
ATOM     16  C10 CBD B1001     135.450 134.674 175.965  1.00 27.96    -0.044 C 
ATOM     17  C19 CBD B1001     135.430 134.468 174.647  1.00 27.96    -0.009 C 
ATOM     18  C14 CBD B1001     135.004 136.031 176.543  1.00 27.96     0.026 C 
ENDBRANCH  15  16
ENDBRANCH   1   9
BRANCH   4  19
ATOM     19  C18 CBD B1001     138.769 138.513 180.892  1.00 27.96     0.026 C 
BRANCH  19  20
ATOM     20  C20 CBD B1001     138.223 139.834 180.290  1.00 27.96     0.005 C 
BRANCH  20  21
ATOM     21  C21 CBD B1001     139.005 141.049 180.868  1.00 27.96     0.000 C 
BRANCH  21  22
ATOM     22  C22 CBD B1001     140.268 141.297 180.009  1.00 27.96     0.000 C 
ATOM     23  C23 CBD B1001     139.891 141.212 178.511  1.00 27.96     0.000 C 
ENDBRANCH  21  22
ENDBRANCH  20  21
ENDBRANCH  19  20
ENDBRANCH   4  19
TORSDOF 6
ENDMDL
MODEL 5
REMARK VINA RESULT:       3.1      2.214      7.247
REMARK  6 active torsions:
REMARK  status: ('A' for Active; 'I' for Inactive)
REMARK    1  A    between atoms: C03_1  and  C10_8 
REMARK    2  A    between atoms: C04_2  and  C08_6 
REMARK    3  A    between atoms: C15_13  and  C18_16 
REMARK    4  A    between atoms: C18_16  and  C20_18 
REMARK    5  A    between atoms: C20_18  and  C21_19 
REMARK    6  A    between atoms: C21_19  and  C22_20 
ROOT
ATOM      1  C08 CBD B1001     137.136 137.362 179.829  1.00 27.96     0.033 A 
ATOM      2  C11 CBD B1001     138.031 136.380 179.423  1.00 27.96     0.129 A 
ATOM      3  C12 CBD B1001     135.924 136.981 180.424  1.00 27.96     0.129 A 
ATOM      4  C15 CBD B1001     136.518 134.648 180.119  1.00 27.96    -0.018 A 
ATOM      5  C16 CBD B1001     137.725 135.029 179.548  1.00 27.96     0.023 A 
ATOM      6  C17 CBD B1001     135.616 135.622 180.553  1.00 27.96     0.023 A 
ATOM      7  O01 CBD B1001     139.246 136.780 178.847  1.00 27.96    -0.190 OA
ATOM      8  O02 CBD B1001     134.988 137.925 180.875  1.00 27.96    -0.190 OA
ENDROOT
BRANCH   1   9
ATOM      9  C04 CBD B1001     137.648 138.810 179.644  1.00 27.96     0.051 C 
ATOM     10  C07 CBD B1001     138.460 139.085 180.892  1.00 27.96    -0.030 C 
ATOM     11  C09 CBD B1001     139.287 140.096 180.802  1.00 27.96    -0.048 C 
ATOM     12  C06 CBD B1001     138.813 141.411 180.179  1.00 27.96     0.022 C 
ATOM     13  C13 CBD B1001     140.767 139.750 180.672  1.00 27.96     0.026 C 
ATOM     14  C05 CBD B1001     137.555 141.279 179.295  1.00 27.96     0.009 C 
ATOM     15  C03 CBD B1001     136.706 140.014 179.519  1.00 27.96     0.027 C 
BRANCH  15  16
ATOM     16  C10 CBD B1001     135.747 139.943 178.325  1.00 27.96    -0.044 C 
ATOM     17  C19 CBD B1001     135.034 138.840 178.092  1.00 27.96    -0.009 C 
ATOM     18  C14 CBD B1001     135.644 141.148 177.370  1.00 27.96     0.026 C 
ENDBRANCH  15  16
ENDBRANCH   1   9
BRANCH   4  19
ATOM     19  C18 CBD B1001     136.197 133.138 180.251  1.00 27.96     0.026 C 
BRANCH  19  20
ATOM     20  C20 CBD B1001     135.677 132.613 178.886  1.00 27.96     0.005 C 
BRANCH  20  21
ATOM     21  C21 CBD B1001     136.803 131.833 178.149  1.00 27.96     0.000 C 
BRANCH  21  22
ATOM     22  C22 CBD B1001     136.437 131.702 176.651  1.00 27.96     0.000 C 
ATOM     23  C23 CBD B1001     137.303 132.684 175.826  1.00 27.96     0.000 C 
ENDBRANCH  21  22
ENDBRANCH  20  21
ENDBRANCH  19  20
ENDBRANCH   4  19
TORSDOF 6
ENDMDL
