MODEL 1
REMARK VINA RESULT:      68.4      0.000      0.000
REMARK  6 active torsions:
REMARK  status: ('A' for Active; 'I' for Inactive)
REMARK    1  A    between atoms: C03_1  and  C10_8 
REMARK    2  A    between atoms: C04_2  and  C08_6 
REMARK    3  A    between atoms: C15_13  and  C18_16 
REMARK    4  A    between atoms: C18_16  and  C20_18 
REMARK    5  A    between atoms: C20_18  and  C21_19 
REMARK    6  A    between atoms: C21_19  and  C22_20 
ROOT
ATOM      1  C08 CBD B1001     141.417 140.556 177.188  1.00 27.96     0.033 A 
ATOM      2  C11 CBD B1001     141.353 139.295 176.607  1.00 27.96     0.129 A 
ATOM      3  C12 CBD B1001     142.455 140.844 178.086  1.00 27.96     0.129 A 
ATOM      4  C15 CBD B1001     143.286 138.577 177.842  1.00 27.96    -0.018 A 
ATOM      5  C16 CBD B1001     142.268 138.301 176.938  1.00 27.96     0.023 A 
ATOM      6  C17 CBD B1001     143.378 139.846 178.419  1.00 27.96     0.023 A 
ATOM      7  O01 CBD B1001     140.320 139.030 175.697  1.00 27.96    -0.190 OA
ATOM      8  O02 CBD B1001     142.586 142.104 178.690  1.00 27.96    -0.190 OA
ENDROOT
BRANCH   1   9
ATOM      9  C04 CBD B1001     140.341 141.547 176.685  1.00 27.96     0.051 C 
ATOM     10  C07 CBD B1001     139.059 141.071 177.332  1.00 27.96    -0.030 C 
ATOM     11  C09 CBD B1001     138.090 141.952 177.353  1.00 27.96    -0.048 C 
ATOM     12  C06 CBD B1001     137.778 142.767 176.095  1.00 27.96     0.022 C 
ATOM     13  C13 CBD B1001     137.794 142.600 178.702  1.00 27.96     0.026 C 
ATOM     14  C05 CBD B1001     138.926 142.811 175.065  1.00 27.96     0.009 C 
ATOM     15  C03 CBD B1001     139.992 141.709 175.200  1.00 27.96     0.027 C 
BRANCH  15  16
ATOM     16  C10 CBD B1001     141.166 142.160 174.322  1.00 27.96    -0.044 C 
ATOM     17  C19 CBD B1001     142.317 142.550 174.874  1.00 27.96    -0.009 C 
ATOM     18  C14 CBD B1001     140.990 142.197 172.792  1.00 27.96     0.026 C 
ENDBRANCH  15  16
ENDBRANCH   1   9
BRANCH   4  19
ATOM     19  C18 CBD B1001     144.295 137.457 178.196  1.00 27.96     0.026 C 
BRANCH  19  20
ATOM     20  C20 CBD B1001     145.110 137.094 176.927  1.00 27.96     0.005 C 
BRANCH  20  21
ATOM     21  C21 CBD B1001     145.934 138.324 176.450  1.00 27.96     0.000 C 
BRANCH  21  22
ATOM     22  C22 CBD B1001     147.399 137.892 176.204  1.00 27.96     0.000 C 
ATOM     23  C23 CBD B1001     147.607 136.458 176.750  1.00 27.96     0.000 C 
ENDBRANCH  21  22
ENDBRANCH  20  21
ENDBRANCH  19  20
ENDBRANCH   4  19
TORSDOF 6
ENDMDL
MODEL 2
REMARK VINA RESULT:      68.6      5.137      6.895
REMARK  6 active torsions:
REMARK  status: ('A' for Active; 'I' for Inactive)
REMARK    1  A    between atoms: C03_1  and  C10_8 
REMARK    2  A    between atoms: C04_2  and  C08_6 
REMARK    3  A    between atoms: C15_13  and  C18_16 
REMARK    4  A    between atoms: C18_16  and  C20_18 
REMARK    5  A    between atoms: C20_18  and  C21_19 
REMARK    6  A    between atoms: C21_19  and  C22_20 
ROOT
ATOM      1  C08 CBD B1001     144.850 139.054 172.270  1.00 27.96     0.033 A 
ATOM      2  C11 CBD B1001     145.655 138.271 173.089  1.00 27.96     0.129 A 
ATOM      3  C12 CBD B1001     144.496 138.578 171.000  1.00 27.96     0.129 A 
ATOM      4  C15 CBD B1001     145.823 136.583 171.386  1.00 27.96    -0.018 A 
ATOM      5  C16 CBD B1001     146.156 137.049 172.652  1.00 27.96     0.023 A 
ATOM      6  C17 CBD B1001     144.997 137.347 170.559  1.00 27.96     0.023 A 
ATOM      7  O01 CBD B1001     145.983 138.755 174.364  1.00 27.96    -0.190 OA
ATOM      8  O02 CBD B1001     143.669 139.312 170.135  1.00 27.96    -0.190 OA
ENDROOT
BRANCH   1   9
ATOM      9  C04 CBD B1001     144.357 140.367 172.925  1.00 27.96     0.051 C 
ATOM     10  C07 CBD B1001     143.069 140.689 172.199  1.00 27.96    -0.030 C 
ATOM     11  C09 CBD B1001     142.286 141.540 172.815  1.00 27.96    -0.048 C 
ATOM     12  C06 CBD B1001     142.880 142.810 173.429  1.00 27.96     0.022 C 
ATOM     13  C13 CBD B1001     141.038 140.958 173.471  1.00 27.96     0.026 C 
ATOM     14  C05 CBD B1001     144.402 142.746 173.675  1.00 27.96     0.009 C 
ATOM     15  C03 CBD B1001     145.165 141.669 172.883  1.00 27.96     0.027 C 
BRANCH  15  16
ATOM     16  C10 CBD B1001     146.548 141.575 173.539  1.00 27.96    -0.044 C 
ATOM     17  C19 CBD B1001     146.780 142.153 174.720  1.00 27.96    -0.009 C 
ATOM     18  C14 CBD B1001     147.683 140.839 172.801  1.00 27.96     0.026 C 
ENDBRANCH  15  16
ENDBRANCH   1   9
BRANCH   4  19
ATOM     19  C18 CBD B1001     146.390 135.220 170.919  1.00 27.96     0.026 C 
BRANCH  19  20
ATOM     20  C20 CBD B1001     147.724 135.462 170.165  1.00 27.96     0.005 C 
BRANCH  20  21
ATOM     21  C21 CBD B1001     147.877 134.437 169.004  1.00 27.96     0.000 C 
BRANCH  21  22
ATOM     22  C22 CBD B1001     147.181 133.113 169.398  1.00 27.96     0.000 C 
ATOM     23  C23 CBD B1001     145.868 132.967 168.590  1.00 27.96     0.000 C 
ENDBRANCH  21  22
ENDBRANCH  20  21
ENDBRANCH  19  20
ENDBRANCH   4  19
TORSDOF 6
ENDMDL
MODEL 3
REMARK VINA RESULT:      70.5      3.241      7.349
REMARK  6 active torsions:
REMARK  status: ('A' for Active; 'I' for Inactive)
REMARK    1  A    between atoms: C03_1  and  C10_8 
REMARK    2  A    between atoms: C04_2  and  C08_6 
REMARK    3  A    between atoms: C15_13  and  C18_16 
REMARK    4  A    between atoms: C18_16  and  C20_18 
REMARK    5  A    between atoms: C20_18  and  C21_19 
REMARK    6  A    between atoms: C21_19  and  C22_20 
ROOT
ATOM      1  C08 CBD B1001     143.973 140.942 172.998  1.00 27.96     0.033 A 
ATOM      2  C11 CBD B1001     142.931 140.331 172.310  1.00 27.96     0.129 A 
ATOM      3  C12 CBD B1001     143.739 142.156 173.659  1.00 27.96     0.129 A 
ATOM      4  C15 CBD B1001     141.448 142.140 172.860  1.00 27.96    -0.018 A 
ATOM      5  C16 CBD B1001     141.677 140.927 172.223  1.00 27.96     0.023 A 
ATOM      6  C17 CBD B1001     142.477 142.756 173.574  1.00 27.96     0.023 A 
ATOM      7  O01 CBD B1001     143.178 139.108 171.671  1.00 27.96    -0.190 OA
ATOM      8  O02 CBD B1001     144.744 142.811 174.388  1.00 27.96    -0.190 OA
ENDROOT
BRANCH   1   9
ATOM      9  C04 CBD B1001     145.288 140.127 173.019  1.00 27.96     0.051 C 
ATOM     10  C07 CBD B1001     144.880 138.767 173.543  1.00 27.96    -0.030 C 
ATOM     11  C09 CBD B1001     145.737 137.804 173.307  1.00 27.96    -0.048 C 
ATOM     12  C06 CBD B1001     147.229 138.039 173.551  1.00 27.96     0.022 C 
ATOM     13  C13 CBD B1001     145.351 136.807 172.218  1.00 27.96     0.026 C 
ATOM     14  C05 CBD B1001     147.638 139.527 173.607  1.00 27.96     0.009 C 
ATOM     15  C03 CBD B1001     146.498 140.526 173.873  1.00 27.96     0.027 C 
BRANCH  15  16
ATOM     16  C10 CBD B1001     147.074 141.908 173.543  1.00 27.96    -0.044 C 
ATOM     17  C19 CBD B1001     147.408 142.756 174.517  1.00 27.96    -0.009 C 
ATOM     18  C14 CBD B1001     147.228 142.326 172.067  1.00 27.96     0.026 C 
ENDBRANCH  15  16
ENDBRANCH   1   9
BRANCH   4  19
ATOM     19  C18 CBD B1001     140.044 142.787 172.751  1.00 27.96     0.026 C 
BRANCH  19  20
ATOM     20  C20 CBD B1001     139.366 142.753 174.146  1.00 27.96     0.005 C 
BRANCH  20  21
ATOM     21  C21 CBD B1001     140.436 142.551 175.257  1.00 27.96     0.000 C 
BRANCH  21  22
ATOM     22  C22 CBD B1001     139.728 142.255 176.600  1.00 27.96     0.000 C 
ATOM     23  C23 CBD B1001     140.329 140.971 177.221  1.00 27.96     0.000 C 
ENDBRANCH  21  22
ENDBRANCH  20  21
ENDBRANCH  19  20
ENDBRANCH   4  19
TORSDOF 6
ENDMDL
MODEL 4
REMARK VINA RESULT:      70.8      5.060      6.666
REMARK  6 active torsions:
REMARK  status: ('A' for Active; 'I' for Inactive)
REMARK    1  A    between atoms: C03_1  and  C10_8 
REMARK    2  A    between atoms: C04_2  and  C08_6 
REMARK    3  A    between atoms: C15_13  and  C18_16 
REMARK    4  A    between atoms: C18_16  and  C20_18 
REMARK    5  A    between atoms: C20_18  and  C21_19 
REMARK    6  A    between atoms: C21_19  and  C22_20 
ROOT
ATOM      1  C08 CBD B1001     145.078 138.973 172.743  1.00 27.96     0.033 A 
ATOM      2  C11 CBD B1001     144.757 138.584 171.448  1.00 27.96     0.129 A 
ATOM      3  C12 CBD B1001     145.943 138.174 173.504  1.00 27.96     0.129 A 
ATOM      4  C15 CBD B1001     146.079 136.590 171.670  1.00 27.96    -0.018 A 
ATOM      5  C16 CBD B1001     145.237 137.394 170.912  1.00 27.96     0.023 A 
ATOM      6  C17 CBD B1001     146.430 136.977 172.965  1.00 27.96     0.023 A 
ATOM      7  O01 CBD B1001     143.904 139.405 170.695  1.00 27.96    -0.190 OA
ATOM      8  O02 CBD B1001     146.322 138.523 174.809  1.00 27.96    -0.190 OA
ENDROOT
BRANCH   1   9
ATOM      9  C04 CBD B1001     144.482 140.337 173.167  1.00 27.96     0.051 C 
ATOM     10  C07 CBD B1001     143.204 140.455 172.365  1.00 27.96    -0.030 C 
ATOM     11  C09 CBD B1001     142.349 141.339 172.815  1.00 27.96    -0.048 C 
ATOM     12  C06 CBD B1001     142.841 142.726 173.235  1.00 27.96     0.022 C 
ATOM     13  C13 CBD B1001     141.115 140.787 173.522  1.00 27.96     0.026 C 
ATOM     14  C05 CBD B1001     144.355 142.803 173.529  1.00 27.96     0.009 C 
ATOM     15  C03 CBD B1001     145.211 141.667 172.939  1.00 27.96     0.027 C 
BRANCH  15  16
ATOM     16  C10 CBD B1001     146.571 141.769 173.638  1.00 27.96    -0.044 C 
ATOM     17  C19 CBD B1001     146.725 142.543 174.715  1.00 27.96    -0.009 C 
ATOM     18  C14 CBD B1001     147.774 140.998 173.061  1.00 27.96     0.026 C 
ENDBRANCH  15  16
ENDBRANCH   1   9
BRANCH   4  19
ATOM     19  C18 CBD B1001     146.604 135.269 171.054  1.00 27.96     0.026 C 
BRANCH  19  20
ATOM     20  C20 CBD B1001     147.165 135.562 169.637  1.00 27.96     0.005 C 
BRANCH  20  21
ATOM     21  C21 CBD B1001     146.492 134.626 168.592  1.00 27.96     0.000 C 
BRANCH  21  22
ATOM     22  C22 CBD B1001     146.441 133.186 169.155  1.00 27.96     0.000 C 
ATOM     23  C23 CBD B1001     147.878 132.720 169.494  1.00 27.96     0.000 C 
ENDBRANCH  21  22
ENDBRANCH  20  21
ENDBRANCH  19  20
ENDBRANCH   4  19
TORSDOF 6
ENDMDL
