MODEL 1
REMARK VINA RESULT:      45.4      0.000      0.000
REMARK  6 active torsions:
REMARK  status: ('A' for Active; 'I' for Inactive)
REMARK    1  A    between atoms: C03_1  and  C10_8 
REMARK    2  A    between atoms: C04_2  and  C08_6 
REMARK    3  A    between atoms: C15_13  and  C18_16 
REMARK    4  A    between atoms: C18_16  and  C20_18 
REMARK    5  A    between atoms: C20_18  and  C21_19 
REMARK    6  A    between atoms: C21_19  and  C22_20 
ROOT
ATOM      1  C08 CBD B1001     139.453 136.890 179.650  1.00 27.96     0.033 A 
ATOM      2  C11 CBD B1001     138.842 136.004 180.530  1.00 27.96     0.129 A 
ATOM      3  C12 CBD B1001     139.741 136.469 178.344  1.00 27.96     0.129 A 
ATOM      4  C15 CBD B1001     138.862 134.268 178.869  1.00 27.96    -0.018 A 
ATOM      5  C16 CBD B1001     138.560 134.695 180.156  1.00 27.96     0.023 A 
ATOM      6  C17 CBD B1001     139.455 135.152 177.964  1.00 27.96     0.023 A 
ATOM      7  O01 CBD B1001     138.544 136.448 181.827  1.00 27.96    -0.190 OA
ATOM      8  O02 CBD B1001     140.337 137.322 177.403  1.00 27.96    -0.190 OA
ENDROOT
BRANCH   1   9
ATOM      9  C04 CBD B1001     139.667 138.312 180.221  1.00 27.96     0.051 C 
ATOM     10  C07 CBD B1001     138.825 138.343 181.479  1.00 27.96    -0.030 C 
ATOM     11  C09 CBD B1001     139.127 139.299 182.322  1.00 27.96    -0.048 C 
ATOM     12  C06 CBD B1001     139.360 140.721 181.806  1.00 27.96     0.022 C 
ATOM     13  C13 CBD B1001     139.874 138.878 183.583  1.00 27.96     0.026 C 
ATOM     14  C05 CBD B1001     139.677 140.806 180.297  1.00 27.96     0.009 C 
ATOM     15  C03 CBD B1001     139.273 139.581 179.457  1.00 27.96     0.027 C 
BRANCH  15  16
ATOM     16  C10 CBD B1001     139.984 139.752 178.109  1.00 27.96    -0.044 C 
ATOM     17  C19 CBD B1001     141.210 139.261 177.921  1.00 27.96    -0.009 C 
ATOM     18  C14 CBD B1001     139.283 140.535 176.982  1.00 27.96     0.026 C 
ENDBRANCH  15  16
ENDBRANCH   1   9
BRANCH   4  19
ATOM     19  C18 CBD B1001     138.538 132.807 178.470  1.00 27.96     0.026 C 
BRANCH  19  20
ATOM     20  C20 CBD B1001     138.566 132.689 176.923  1.00 27.96     0.005 C 
BRANCH  20  21
ATOM     21  C21 CBD B1001     139.333 131.404 176.498  1.00 27.96     0.000 C 
BRANCH  21  22
ATOM     22  C22 CBD B1001     140.024 130.788 177.738  1.00 27.96     0.000 C 
ATOM     23  C23 CBD B1001     141.394 131.476 177.952  1.00 27.96     0.000 C 
ENDBRANCH  21  22
ENDBRANCH  20  21
ENDBRANCH  19  20
ENDBRANCH   4  19
TORSDOF 6
ENDMDL
