MODEL 1
REMARK VINA RESULT:      50.9      0.000      0.000
REMARK  6 active torsions:
REMARK  status: ('A' for Active; 'I' for Inactive)
REMARK    1  A    between atoms: C03_1  and  C10_8 
REMARK    2  A    between atoms: C04_2  and  C08_6 
REMARK    3  A    between atoms: C15_13  and  C18_16 
REMARK    4  A    between atoms: C18_16  and  C20_18 
REMARK    5  A    between atoms: C20_18  and  C21_19 
REMARK    6  A    between atoms: C21_19  and  C22_20 
ROOT
ATOM      1  C08 CBD B1001     148.317 142.310 175.572  1.00 27.96     0.033 A 
ATOM      2  C11 CBD B1001     148.206 142.204 176.953  1.00 27.96     0.129 A 
ATOM      3  C12 CBD B1001     149.386 143.035 175.024  1.00 27.96     0.129 A 
ATOM      4  C15 CBD B1001     150.152 143.580 177.262  1.00 27.96    -0.018 A 
ATOM      5  C16 CBD B1001     149.103 142.845 177.801  1.00 27.96     0.023 A 
ATOM      6  C17 CBD B1001     150.292 143.678 175.876  1.00 27.96     0.023 A 
ATOM      7  O01 CBD B1001     147.141 141.460 177.482  1.00 27.96    -0.190 OA
ATOM      8  O02 CBD B1001     149.565 143.160 173.638  1.00 27.96    -0.190 OA
ENDROOT
BRANCH   1   9
ATOM      9  C04 CBD B1001     147.253 141.511 174.782  1.00 27.96     0.051 C 
ATOM     10  C07 CBD B1001     148.016 140.339 174.204  1.00 27.96    -0.030 C 
ATOM     11  C09 CBD B1001     147.271 139.336 173.808  1.00 27.96    -0.048 C 
ATOM     12  C06 CBD B1001     146.011 139.606 172.983  1.00 27.96     0.022 C 
ATOM     13  C13 CBD B1001     147.277 138.097 174.698  1.00 27.96     0.026 C 
ATOM     14  C05 CBD B1001     145.480 141.052 173.088  1.00 27.96     0.009 C 
ATOM     15  C03 CBD B1001     146.486 142.102 173.592  1.00 27.96     0.027 C 
BRANCH  15  16
ATOM     16  C10 CBD B1001     145.653 143.343 173.933  1.00 27.96    -0.044 C 
ATOM     17  C19 CBD B1001     145.250 143.568 175.185  1.00 27.96    -0.009 C 
ATOM     18  C14 CBD B1001     145.250 144.311 172.804  1.00 27.96     0.026 C 
ENDBRANCH  15  16
ENDBRANCH   1   9
BRANCH   4  19
ATOM     19  C18 CBD B1001     151.142 144.284 178.222  1.00 27.96     0.026 C 
BRANCH  19  20
ATOM     20  C20 CBD B1001     152.508 143.552 178.163  1.00 27.96     0.005 C 
BRANCH  20  21
ATOM     21  C21 CBD B1001     153.324 143.834 179.457  1.00 27.96     0.000 C 
BRANCH  21  22
ATOM     22  C22 CBD B1001     154.834 143.704 179.147  1.00 27.96     0.000 C 
ATOM     23  C23 CBD B1001     155.025 143.491 177.625  1.00 27.96     0.000 C 
ENDBRANCH  21  22
ENDBRANCH  20  21
ENDBRANCH  19  20
ENDBRANCH   4  19
TORSDOF 6
ENDMDL
