MODEL 1
REMARK VINA RESULT:      -8.7      0.000      0.000
REMARK  6 active torsions:
REMARK  status: ('A' for Active; 'I' for Inactive)
REMARK    1  A    between atoms: C03_1  and  C10_8 
REMARK    2  A    between atoms: C04_2  and  C08_6 
REMARK    3  A    between atoms: C15_13  and  C18_16 
REMARK    4  A    between atoms: C18_16  and  C20_18 
REMARK    5  A    between atoms: C20_18  and  C21_19 
REMARK    6  A    between atoms: C21_19  and  C22_20 
ROOT
ATOM      1  C08 CBD B1001     139.974 145.845 172.404  1.00 27.96     0.033 A 
ATOM      2  C11 CBD B1001     139.180 146.970 172.592  1.00 27.96     0.129 A 
ATOM      3  C12 CBD B1001     139.364 144.612 172.133  1.00 27.96     0.129 A 
ATOM      4  C15 CBD B1001     137.183 145.662 172.316  1.00 27.96    -0.018 A 
ATOM      5  C16 CBD B1001     137.792 146.885 172.565  1.00 27.96     0.023 A 
ATOM      6  C17 CBD B1001     137.967 144.525 172.103  1.00 27.96     0.023 A 
ATOM      7  O01 CBD B1001     139.809 148.198 172.844  1.00 27.96    -0.190 OA
ATOM      8  O02 CBD B1001     140.111 143.445 171.913  1.00 27.96    -0.190 OA
ENDROOT
BRANCH   1   9
ATOM      9  C04 CBD B1001     141.496 146.125 172.436  1.00 27.96     0.051 C 
ATOM     10  C07 CBD B1001     141.941 145.948 171.001  1.00 27.96    -0.030 C 
ATOM     11  C09 CBD B1001     143.101 146.484 170.712  1.00 27.96    -0.048 C 
ATOM     12  C06 CBD B1001     144.285 146.287 171.661  1.00 27.96     0.022 C 
ATOM     13  C13 CBD B1001     143.067 147.766 169.886  1.00 27.96     0.026 C 
ATOM     14  C05 CBD B1001     143.889 145.873 173.095  1.00 27.96     0.009 C 
ATOM     15  C03 CBD B1001     142.478 145.279 173.256  1.00 27.96     0.027 C 
BRANCH  15  16
ATOM     16  C10 CBD B1001     142.201 145.276 174.764  1.00 27.96    -0.044 C 
ATOM     17  C19 CBD B1001     141.595 144.238 175.341  1.00 27.96    -0.009 C 
ATOM     18  C14 CBD B1001     142.596 146.507 175.604  1.00 27.96     0.026 C 
ENDBRANCH  15  16
ENDBRANCH   1   9
BRANCH   4  19
ATOM     19  C18 CBD B1001     135.636 145.588 172.289  1.00 27.96     0.026 C 
BRANCH  19  20
ATOM     20  C20 CBD B1001     135.185 144.967 170.940  1.00 27.96     0.005 C 
BRANCH  20  21
ATOM     21  C21 CBD B1001     134.910 146.089 169.899  1.00 27.96     0.000 C 
BRANCH  21  22
ATOM     22  C22 CBD B1001     134.235 147.287 170.607  1.00 27.96     0.000 C 
ATOM     23  C23 CBD B1001     134.895 148.602 170.124  1.00 27.96     0.000 C 
ENDBRANCH  21  22
ENDBRANCH  20  21
ENDBRANCH  19  20
ENDBRANCH   4  19
TORSDOF 6
ENDMDL
MODEL 2
REMARK VINA RESULT:      -7.7      0.840      3.235
REMARK  6 active torsions:
REMARK  status: ('A' for Active; 'I' for Inactive)
REMARK    1  A    between atoms: C03_1  and  C10_8 
REMARK    2  A    between atoms: C04_2  and  C08_6 
REMARK    3  A    between atoms: C15_13  and  C18_16 
REMARK    4  A    between atoms: C18_16  and  C20_18 
REMARK    5  A    between atoms: C20_18  and  C21_19 
REMARK    6  A    between atoms: C21_19  and  C22_20 
ROOT
ATOM      1  C08 CBD B1001     139.845 145.779 172.174  1.00 27.96     0.033 A 
ATOM      2  C11 CBD B1001     139.250 144.593 171.761  1.00 27.96     0.129 A 
ATOM      3  C12 CBD B1001     139.033 146.873 172.510  1.00 27.96     0.129 A 
ATOM      4  C15 CBD B1001     137.063 145.575 171.940  1.00 27.96    -0.018 A 
ATOM      5  C16 CBD B1001     137.869 144.487 171.626  1.00 27.96     0.023 A 
ATOM      6  C17 CBD B1001     137.643 146.767 172.378  1.00 27.96     0.023 A 
ATOM      7  O01 CBD B1001     140.076 143.505 171.447  1.00 27.96    -0.190 OA
ATOM      8  O02 CBD B1001     139.573 148.089 172.954  1.00 27.96    -0.190 OA
ENDROOT
BRANCH   1   9
ATOM      9  C04 CBD B1001     141.386 145.712 172.297  1.00 27.96     0.051 C 
ATOM     10  C07 CBD B1001     141.637 145.534 173.779  1.00 27.96    -0.030 C 
ATOM     11  C09 CBD B1001     142.830 145.089 174.087  1.00 27.96    -0.048 C 
ATOM     12  C06 CBD B1001     144.064 145.690 173.409  1.00 27.96     0.022 C 
ATOM     13  C13 CBD B1001     142.913 143.633 174.535  1.00 27.96     0.026 C 
ATOM     14  C05 CBD B1001     143.765 146.435 172.091  1.00 27.96     0.009 C 
ATOM     15  C03 CBD B1001     142.303 146.869 171.882  1.00 27.96     0.027 C 
BRANCH  15  16
ATOM     16  C10 CBD B1001     142.195 147.259 170.403  1.00 27.96    -0.044 C 
ATOM     17  C19 CBD B1001     142.439 146.363 169.444  1.00 27.96    -0.009 C 
ATOM     18  C14 CBD B1001     141.840 148.712 170.032  1.00 27.96     0.026 C 
ENDBRANCH  15  16
ENDBRANCH   1   9
BRANCH   4  19
ATOM     19  C18 CBD B1001     135.528 145.436 171.785  1.00 27.96     0.026 C 
BRANCH  19  20
ATOM     20  C20 CBD B1001     135.206 145.013 170.327  1.00 27.96     0.005 C 
BRANCH  20  21
ATOM     21  C21 CBD B1001     134.624 146.219 169.536  1.00 27.96     0.000 C 
BRANCH  21  22
ATOM     22  C22 CBD B1001     134.198 147.325 170.531  1.00 27.96     0.000 C 
ATOM     23  C23 CBD B1001     134.820 148.673 170.093  1.00 27.96     0.000 C 
ENDBRANCH  21  22
ENDBRANCH  20  21
ENDBRANCH  19  20
ENDBRANCH   4  19
TORSDOF 6
ENDMDL
MODEL 3
REMARK VINA RESULT:      -7.3      1.577      3.161
REMARK  6 active torsions:
REMARK  status: ('A' for Active; 'I' for Inactive)
REMARK    1  A    between atoms: C03_1  and  C10_8 
REMARK    2  A    between atoms: C04_2  and  C08_6 
REMARK    3  A    between atoms: C15_13  and  C18_16 
REMARK    4  A    between atoms: C18_16  and  C20_18 
REMARK    5  A    between atoms: C20_18  and  C21_19 
REMARK    6  A    between atoms: C21_19  and  C22_20 
ROOT
ATOM      1  C08 CBD B1001     139.909 145.751 172.286  1.00 27.96     0.033 A 
ATOM      2  C11 CBD B1001     139.324 146.938 172.712  1.00 27.96     0.129 A 
ATOM      3  C12 CBD B1001     139.094 144.729 171.779  1.00 27.96     0.129 A 
ATOM      4  C15 CBD B1001     137.132 146.091 172.207  1.00 27.96    -0.018 A 
ATOM      5  C16 CBD B1001     137.944 147.109 172.691  1.00 27.96     0.023 A 
ATOM      6  C17 CBD B1001     137.705 144.901 171.754  1.00 27.96     0.023 A 
ATOM      7  O01 CBD B1001     140.157 147.956 173.199  1.00 27.96    -0.190 OA
ATOM      8  O02 CBD B1001     139.626 143.516 171.313  1.00 27.96    -0.190 OA
ENDROOT
BRANCH   1   9
ATOM      9  C04 CBD B1001     141.455 145.742 172.350  1.00 27.96     0.051 C 
ATOM     10  C07 CBD B1001     141.770 145.612 173.825  1.00 27.96    -0.030 C 
ATOM     11  C09 CBD B1001     142.989 145.217 174.097  1.00 27.96    -0.048 C 
ATOM     12  C06 CBD B1001     144.173 145.843 173.356  1.00 27.96     0.022 C 
ATOM     13  C13 CBD B1001     143.143 143.778 174.578  1.00 27.96     0.026 C 
ATOM     14  C05 CBD B1001     143.797 146.543 172.032  1.00 27.96     0.009 C 
ATOM     15  C03 CBD B1001     142.313 146.919 171.870  1.00 27.96     0.027 C 
BRANCH  15  16
ATOM     16  C10 CBD B1001     142.134 147.266 170.387  1.00 27.96    -0.044 C 
ATOM     17  C19 CBD B1001     142.289 146.331 169.447  1.00 27.96    -0.009 C 
ATOM     18  C14 CBD B1001     141.812 148.719 169.988  1.00 27.96     0.026 C 
ENDBRANCH  15  16
ENDBRANCH   1   9
BRANCH   4  19
ATOM     19  C18 CBD B1001     135.598 146.303 172.191  1.00 27.96     0.026 C 
BRANCH  19  20
ATOM     20  C20 CBD B1001     135.291 147.716 171.629  1.00 27.96     0.005 C 
BRANCH  20  21
ATOM     21  C21 CBD B1001     134.881 148.674 172.784  1.00 27.96     0.000 C 
BRANCH  21  22
ATOM     22  C22 CBD B1001     134.040 147.893 173.821  1.00 27.96     0.000 C 
ATOM     23  C23 CBD B1001     133.685 148.831 175.000  1.00 27.96     0.000 C 
ENDBRANCH  21  22
ENDBRANCH  20  21
ENDBRANCH  19  20
ENDBRANCH   4  19
TORSDOF 6
ENDMDL
MODEL 4
REMARK VINA RESULT:      -7.1      0.290      1.763
REMARK  6 active torsions:
REMARK  status: ('A' for Active; 'I' for Inactive)
REMARK    1  A    between atoms: C03_1  and  C10_8 
REMARK    2  A    between atoms: C04_2  and  C08_6 
REMARK    3  A    between atoms: C15_13  and  C18_16 
REMARK    4  A    between atoms: C18_16  and  C20_18 
REMARK    5  A    between atoms: C20_18  and  C21_19 
REMARK    6  A    between atoms: C21_19  and  C22_20 
ROOT
ATOM      1  C08 CBD B1001     140.077 146.120 172.457  1.00 27.96     0.033 A 
ATOM      2  C11 CBD B1001     139.603 144.820 172.332  1.00 27.96     0.129 A 
ATOM      3  C12 CBD B1001     139.163 147.171 172.614  1.00 27.96     0.129 A 
ATOM      4  C15 CBD B1001     137.329 145.590 172.445  1.00 27.96    -0.018 A 
ATOM      5  C16 CBD B1001     138.239 144.549 172.309  1.00 27.96     0.023 A 
ATOM      6  C17 CBD B1001     137.789 146.900 172.594  1.00 27.96     0.023 A 
ATOM      7  O01 CBD B1001     140.533 143.779 172.195  1.00 27.96    -0.190 OA
ATOM      8  O02 CBD B1001     139.580 148.502 172.767  1.00 27.96    -0.190 OA
ENDROOT
BRANCH   1   9
ATOM      9  C04 CBD B1001     141.620 146.236 172.494  1.00 27.96     0.051 C 
ATOM     10  C07 CBD B1001     142.048 146.014 171.060  1.00 27.96    -0.030 C 
ATOM     11  C09 CBD B1001     143.260 146.423 170.775  1.00 27.96    -0.048 C 
ATOM     12  C06 CBD B1001     144.413 146.101 171.728  1.00 27.96     0.022 C 
ATOM     13  C13 CBD B1001     143.365 147.702 169.950  1.00 27.96     0.026 C 
ATOM     14  C05 CBD B1001     143.971 145.731 173.160  1.00 27.96     0.009 C 
ATOM     15  C03 CBD B1001     142.504 145.291 173.316  1.00 27.96     0.027 C 
BRANCH  15  16
ATOM     16  C10 CBD B1001     142.224 145.317 174.823  1.00 27.96    -0.044 C 
ATOM     17  C19 CBD B1001     141.634 144.281 175.423  1.00 27.96    -0.009 C 
ATOM     18  C14 CBD B1001     142.595 146.572 175.636  1.00 27.96     0.026 C 
ENDBRANCH  15  16
ENDBRANCH   1   9
BRANCH   4  19
ATOM     19  C18 CBD B1001     135.814 145.268 172.418  1.00 27.96     0.026 C 
BRANCH  19  20
ATOM     20  C20 CBD B1001     135.442 144.717 171.016  1.00 27.96     0.005 C 
BRANCH  20  21
ATOM     21  C21 CBD B1001     135.210 145.893 170.024  1.00 27.96     0.000 C 
BRANCH  21  22
ATOM     22  C22 CBD B1001     134.342 146.975 170.709  1.00 27.96     0.000 C 
ATOM     23  C23 CBD B1001     134.944 148.371 170.417  1.00 27.96     0.000 C 
ENDBRANCH  21  22
ENDBRANCH  20  21
ENDBRANCH  19  20
ENDBRANCH   4  19
TORSDOF 6
ENDMDL
MODEL 5
REMARK VINA RESULT:      -6.8      1.966      7.777
REMARK  6 active torsions:
REMARK  status: ('A' for Active; 'I' for Inactive)
REMARK    1  A    between atoms: C03_1  and  C10_8 
REMARK    2  A    between atoms: C04_2  and  C08_6 
REMARK    3  A    between atoms: C15_13  and  C18_16 
REMARK    4  A    between atoms: C18_16  and  C20_18 
REMARK    5  A    between atoms: C20_18  and  C21_19 
REMARK    6  A    between atoms: C21_19  and  C22_20 
ROOT
ATOM      1  C08 CBD B1001     136.323 145.875 171.579  1.00 27.96     0.033 A 
ATOM      2  C11 CBD B1001     137.113 146.869 172.145  1.00 27.96     0.129 A 
ATOM      3  C12 CBD B1001     136.938 144.741 171.030  1.00 27.96     0.129 A 
ATOM      4  C15 CBD B1001     139.114 145.669 171.571  1.00 27.96    -0.018 A 
ATOM      5  C16 CBD B1001     138.501 146.782 172.131  1.00 27.96     0.023 A 
ATOM      6  C17 CBD B1001     138.335 144.650 171.018  1.00 27.96     0.023 A 
ATOM      7  O01 CBD B1001     136.480 147.988 172.706  1.00 27.96    -0.190 OA
ATOM      8  O02 CBD B1001     136.194 143.694 170.464  1.00 27.96    -0.190 OA
ENDROOT
BRANCH   1   9
ATOM      9  C04 CBD B1001     134.800 146.118 171.708  1.00 27.96     0.051 C 
ATOM     10  C07 CBD B1001     134.391 145.306 172.918  1.00 27.96    -0.030 C 
ATOM     11  C09 CBD B1001     133.237 145.637 173.441  1.00 27.96    -0.048 C 
ATOM     12  C06 CBD B1001     132.030 145.874 172.530  1.00 27.96     0.022 C 
ATOM     13  C13 CBD B1001     133.287 146.409 174.757  1.00 27.96     0.026 C 
ATOM     14  C05 CBD B1001     132.392 146.158 171.057  1.00 27.96     0.009 C 
ATOM     15  C03 CBD B1001     133.801 145.721 170.615  1.00 27.96     0.027 C 
BRANCH  15  16
ATOM     16  C10 CBD B1001     134.040 146.403 169.264  1.00 27.96    -0.044 C 
ATOM     17  C19 CBD B1001     134.327 145.681 168.179  1.00 27.96    -0.009 C 
ATOM     18  C14 CBD B1001     133.986 147.941 169.177  1.00 27.96     0.026 C 
ENDBRANCH  15  16
ENDBRANCH   1   9
BRANCH   4  19
ATOM     19  C18 CBD B1001     140.661 145.590 171.567  1.00 27.96     0.026 C 
BRANCH  19  20
ATOM     20  C20 CBD B1001     141.235 146.945 172.060  1.00 27.96     0.005 C 
BRANCH  20  21
ATOM     21  C21 CBD B1001     142.380 146.701 173.084  1.00 27.96     0.000 C 
BRANCH  21  22
ATOM     22  C22 CBD B1001     141.853 146.972 174.513  1.00 27.96     0.000 C 
ATOM     23  C23 CBD B1001     143.018 146.823 175.522  1.00 27.96     0.000 C 
ENDBRANCH  21  22
ENDBRANCH  20  21
ENDBRANCH  19  20
ENDBRANCH   4  19
TORSDOF 6
ENDMDL
MODEL 6
REMARK VINA RESULT:      -6.7      2.286      7.739
REMARK  6 active torsions:
REMARK  status: ('A' for Active; 'I' for Inactive)
REMARK    1  A    between atoms: C03_1  and  C10_8 
REMARK    2  A    between atoms: C04_2  and  C08_6 
REMARK    3  A    between atoms: C15_13  and  C18_16 
REMARK    4  A    between atoms: C18_16  and  C20_18 
REMARK    5  A    between atoms: C20_18  and  C21_19 
REMARK    6  A    between atoms: C21_19  and  C22_20 
ROOT
ATOM      1  C08 CBD B1001     136.033 146.115 171.388  1.00 27.96     0.033 A 
ATOM      2  C11 CBD B1001     136.709 144.956 171.028  1.00 27.96     0.129 A 
ATOM      3  C12 CBD B1001     136.697 147.088 172.149  1.00 27.96     0.129 A 
ATOM      4  C15 CBD B1001     138.668 145.672 172.222  1.00 27.96    -0.018 A 
ATOM      5  C16 CBD B1001     138.012 144.720 171.451  1.00 27.96     0.023 A 
ATOM      6  C17 CBD B1001     138.011 146.853 172.574  1.00 27.96     0.023 A 
ATOM      7  O01 CBD B1001     136.034 144.003 170.251  1.00 27.96    -0.190 OA
ATOM      8  O02 CBD B1001     136.077 148.288 172.526  1.00 27.96    -0.190 OA
ENDROOT
BRANCH   1   9
ATOM      9  C04 CBD B1001     134.603 146.228 170.808  1.00 27.96     0.051 C 
ATOM     10  C07 CBD B1001     134.603 147.544 170.061  1.00 27.96    -0.030 C 
ATOM     11  C09 CBD B1001     133.635 147.685 169.189  1.00 27.96    -0.048 C 
ATOM     12  C06 CBD B1001     132.206 147.294 169.573  1.00 27.96     0.022 C 
ATOM     13  C13 CBD B1001     134.026 147.568 167.719  1.00 27.96     0.026 C 
ATOM     14  C05 CBD B1001     132.110 146.338 170.781  1.00 27.96     0.009 C 
ATOM     15  C03 CBD B1001     133.350 146.281 171.691  1.00 27.96     0.027 C 
BRANCH  15  16
ATOM     16  C10 CBD B1001     133.153 145.047 172.580  1.00 27.96    -0.044 C 
ATOM     17  C19 CBD B1001     132.432 144.010 172.153  1.00 27.96    -0.009 C 
ATOM     18  C14 CBD B1001     133.766 145.034 173.994  1.00 27.96     0.026 C 
ENDBRANCH  15  16
ENDBRANCH   1   9
BRANCH   4  19
ATOM     19  C18 CBD B1001     140.120 145.392 172.681  1.00 27.96     0.026 C 
BRANCH  19  20
ATOM     20  C20 CBD B1001     140.447 143.896 172.430  1.00 27.96     0.005 C 
BRANCH  20  21
ATOM     21  C21 CBD B1001     141.165 143.289 173.669  1.00 27.96     0.000 C 
BRANCH  21  22
ATOM     22  C22 CBD B1001     142.010 144.387 174.357  1.00 27.96     0.000 C 
ATOM     23  C23 CBD B1001     143.495 143.950 174.377  1.00 27.96     0.000 C 
ENDBRANCH  21  22
ENDBRANCH  20  21
ENDBRANCH  19  20
ENDBRANCH   4  19
TORSDOF 6
ENDMDL
MODEL 7
REMARK VINA RESULT:      -6.6      1.985      7.499
REMARK  6 active torsions:
REMARK  status: ('A' for Active; 'I' for Inactive)
REMARK    1  A    between atoms: C03_1  and  C10_8 
REMARK    2  A    between atoms: C04_2  and  C08_6 
REMARK    3  A    between atoms: C15_13  and  C18_16 
REMARK    4  A    between atoms: C18_16  and  C20_18 
REMARK    5  A    between atoms: C20_18  and  C21_19 
REMARK    6  A    between atoms: C21_19  and  C22_20 
ROOT
ATOM      1  C08 CBD B1001     136.149 146.074 171.399  1.00 27.96     0.033 A 
ATOM      2  C11 CBD B1001     136.830 144.924 171.019  1.00 27.96     0.129 A 
ATOM      3  C12 CBD B1001     136.823 147.056 172.140  1.00 27.96     0.129 A 
ATOM      4  C15 CBD B1001     138.814 145.668 172.152  1.00 27.96    -0.018 A 
ATOM      5  C16 CBD B1001     138.150 144.706 171.402  1.00 27.96     0.023 A 
ATOM      6  C17 CBD B1001     138.152 146.840 172.524  1.00 27.96     0.023 A 
ATOM      7  O01 CBD B1001     136.146 143.961 170.263  1.00 27.96    -0.190 OA
ATOM      8  O02 CBD B1001     136.197 148.248 172.536  1.00 27.96    -0.190 OA
ENDROOT
BRANCH   1   9
ATOM      9  C04 CBD B1001     134.701 146.166 170.862  1.00 27.96     0.051 C 
ATOM     10  C07 CBD B1001     134.664 147.475 170.104  1.00 27.96    -0.030 C 
ATOM     11  C09 CBD B1001     133.668 147.598 169.262  1.00 27.96    -0.048 C 
ATOM     12  C06 CBD B1001     132.256 147.196 169.692  1.00 27.96     0.022 C 
ATOM     13  C13 CBD B1001     134.015 147.471 167.781  1.00 27.96     0.026 C 
ATOM     14  C05 CBD B1001     132.208 146.250 170.911  1.00 27.96     0.009 C 
ATOM     15  C03 CBD B1001     133.476 146.214 171.783  1.00 27.96     0.027 C 
BRANCH  15  16
ATOM     16  C10 CBD B1001     133.320 144.987 172.689  1.00 27.96    -0.044 C 
ATOM     17  C19 CBD B1001     133.999 144.897 173.835  1.00 27.96    -0.009 C 
ATOM     18  C14 CBD B1001     132.398 143.835 172.244  1.00 27.96     0.026 C 
ENDBRANCH  15  16
ENDBRANCH   1   9
BRANCH   4  19
ATOM     19  C18 CBD B1001     140.284 145.408 172.568  1.00 27.96     0.026 C 
BRANCH  19  20
ATOM     20  C20 CBD B1001     141.001 146.770 172.760  1.00 27.96     0.005 C 
BRANCH  20  21
ATOM     21  C21 CBD B1001     142.449 146.697 172.198  1.00 27.96     0.000 C 
BRANCH  21  22
ATOM     22  C22 CBD B1001     142.422 146.985 170.678  1.00 27.96     0.000 C 
ATOM     23  C23 CBD B1001     141.634 148.293 170.421  1.00 27.96     0.000 C 
ENDBRANCH  21  22
ENDBRANCH  20  21
ENDBRANCH  19  20
ENDBRANCH   4  19
TORSDOF 6
ENDMDL
MODEL 8
REMARK VINA RESULT:      -6.4      2.534      7.986
REMARK  6 active torsions:
REMARK  status: ('A' for Active; 'I' for Inactive)
REMARK    1  A    between atoms: C03_1  and  C10_8 
REMARK    2  A    between atoms: C04_2  and  C08_6 
REMARK    3  A    between atoms: C15_13  and  C18_16 
REMARK    4  A    between atoms: C18_16  and  C20_18 
REMARK    5  A    between atoms: C20_18  and  C21_19 
REMARK    6  A    between atoms: C21_19  and  C22_20 
ROOT
ATOM      1  C08 CBD B1001     135.061 147.165 170.820  1.00 27.96     0.033 A 
ATOM      2  C11 CBD B1001     135.242 145.964 170.145  1.00 27.96     0.129 A 
ATOM      3  C12 CBD B1001     135.965 147.528 171.829  1.00 27.96     0.129 A 
ATOM      4  C15 CBD B1001     137.158 145.440 171.499  1.00 27.96    -0.018 A 
ATOM      5  C16 CBD B1001     136.271 145.093 170.487  1.00 27.96     0.023 A 
ATOM      6  C17 CBD B1001     137.004 146.654 172.172  1.00 27.96     0.023 A 
ATOM      7  O01 CBD B1001     134.339 145.627 169.127  1.00 27.96    -0.190 OA
ATOM      8  O02 CBD B1001     135.849 148.737 172.531  1.00 27.96    -0.190 OA
ENDROOT
BRANCH   1   9
ATOM      9  C04 CBD B1001     133.887 148.024 170.292  1.00 27.96     0.051 C 
ATOM     10  C07 CBD B1001     134.537 149.009 169.345  1.00 27.96    -0.030 C 
ATOM     11  C09 CBD B1001     133.718 149.592 168.506  1.00 27.96    -0.048 C 
ATOM     12  C06 CBD B1001     132.382 150.144 169.009  1.00 27.96     0.022 C 
ATOM     13  C13 CBD B1001     133.781 149.115 167.058  1.00 27.96     0.026 C 
ATOM     14  C05 CBD B1001     131.917 149.555 170.357  1.00 27.96     0.009 C 
ATOM     15  C03 CBD B1001     133.011 148.886 171.210  1.00 27.96     0.027 C 
BRANCH  15  16
ATOM     16  C10 CBD B1001     132.266 148.097 172.293  1.00 27.96    -0.044 C 
ATOM     17  C19 CBD B1001     132.297 148.494 173.566  1.00 27.96    -0.009 C 
ATOM     18  C14 CBD B1001     131.509 146.812 171.902  1.00 27.96     0.026 C 
ENDBRANCH  15  16
ENDBRANCH   1   9
BRANCH   4  19
ATOM     19  C18 CBD B1001     138.298 144.457 171.863  1.00 27.96     0.026 C 
BRANCH  19  20
ATOM     20  C20 CBD B1001     139.028 144.980 173.128  1.00 27.96     0.005 C 
BRANCH  20  21
ATOM     21  C21 CBD B1001     140.566 144.994 172.891  1.00 27.96     0.000 C 
BRANCH  21  22
ATOM     22  C22 CBD B1001     140.948 146.262 172.092  1.00 27.96     0.000 C 
ATOM     23  C23 CBD B1001     140.523 147.517 172.892  1.00 27.96     0.000 C 
ENDBRANCH  21  22
ENDBRANCH  20  21
ENDBRANCH  19  20
ENDBRANCH   4  19
TORSDOF 6
ENDMDL
MODEL 9
REMARK VINA RESULT:      -6.2     10.403     13.929
REMARK  6 active torsions:
REMARK  status: ('A' for Active; 'I' for Inactive)
REMARK    1  A    between atoms: C03_1  and  C10_8 
REMARK    2  A    between atoms: C04_2  and  C08_6 
REMARK    3  A    between atoms: C15_13  and  C18_16 
REMARK    4  A    between atoms: C18_16  and  C20_18 
REMARK    5  A    between atoms: C20_18  and  C21_19 
REMARK    6  A    between atoms: C21_19  and  C22_20 
ROOT
ATOM      1  C08 CBD B1001     133.098 136.443 166.469  1.00 27.96     0.033 A 
ATOM      2  C11 CBD B1001     131.827 136.844 166.864  1.00 27.96     0.129 A 
ATOM      3  C12 CBD B1001     134.194 136.724 167.297  1.00 27.96     0.129 A 
ATOM      4  C15 CBD B1001     132.716 137.858 168.853  1.00 27.96    -0.018 A 
ATOM      5  C16 CBD B1001     131.630 137.561 168.039  1.00 27.96     0.023 A 
ATOM      6  C17 CBD B1001     133.997 137.444 168.482  1.00 27.96     0.023 A 
ATOM      7  O01 CBD B1001     130.741 136.538 166.032  1.00 27.96    -0.190 OA
ATOM      8  O02 CBD B1001     135.498 136.327 166.964  1.00 27.96    -0.190 OA
ENDROOT
BRANCH   1   9
ATOM      9  C04 CBD B1001     133.131 135.630 165.152  1.00 27.96     0.051 C 
ATOM     10  C07 CBD B1001     133.687 134.282 165.557  1.00 27.96    -0.030 C 
ATOM     11  C09 CBD B1001     133.469 133.314 164.701  1.00 27.96    -0.048 C 
ATOM     12  C06 CBD B1001     133.700 133.556 163.207  1.00 27.96     0.022 C 
ATOM     13  C13 CBD B1001     132.405 132.293 165.092  1.00 27.96     0.026 C 
ATOM     14  C05 CBD B1001     133.719 135.045 162.799  1.00 27.96     0.009 C 
ATOM     15  C03 CBD B1001     133.969 136.049 163.939  1.00 27.96     0.027 C 
BRANCH  15  16
ATOM     16  C10 CBD B1001     133.603 137.424 163.365  1.00 27.96    -0.044 C 
ATOM     17  C19 CBD B1001     133.019 137.528 162.170  1.00 27.96    -0.009 C 
ATOM     18  C14 CBD B1001     133.954 138.692 164.168  1.00 27.96     0.026 C 
ENDBRANCH  15  16
ENDBRANCH   1   9
BRANCH   4  19
ATOM     19  C18 CBD B1001     132.476 138.657 170.158  1.00 27.96     0.026 C 
BRANCH  19  20
ATOM     20  C20 CBD B1001     133.847 138.990 170.804  1.00 27.96     0.005 C 
BRANCH  20  21
ATOM     21  C21 CBD B1001     133.895 138.456 172.264  1.00 27.96     0.000 C 
BRANCH  21  22
ATOM     22  C22 CBD B1001     135.113 137.516 172.424  1.00 27.96     0.000 C 
ATOM     23  C23 CBD B1001     134.697 136.073 172.047  1.00 27.96     0.000 C 
ENDBRANCH  21  22
ENDBRANCH  20  21
ENDBRANCH  19  20
ENDBRANCH   4  19
TORSDOF 6
ENDMDL
