MODEL 1
REMARK VINA RESULT:      -2.9      0.000      0.000
REMARK  6 active torsions:
REMARK  status: ('A' for Active; 'I' for Inactive)
REMARK    1  A    between atoms: C03_1  and  C10_8 
REMARK    2  A    between atoms: C04_2  and  C08_6 
REMARK    3  A    between atoms: C15_13  and  C18_16 
REMARK    4  A    between atoms: C18_16  and  C20_18 
REMARK    5  A    between atoms: C20_18  and  C21_19 
REMARK    6  A    between atoms: C21_19  and  C22_20 
ROOT
ATOM      1  C08 CBD B1001     152.087 146.625 154.478  1.00 27.96     0.033 A 
ATOM      2  C11 CBD B1001     152.737 145.450 154.839  1.00 27.96     0.129 A 
ATOM      3  C12 CBD B1001     151.066 146.576 153.518  1.00 27.96     0.129 A 
ATOM      4  C15 CBD B1001     151.430 144.190 153.263  1.00 27.96    -0.018 A 
ATOM      5  C16 CBD B1001     152.428 144.239 154.229  1.00 27.96     0.023 A 
ATOM      6  C17 CBD B1001     150.752 145.357 152.905  1.00 27.96     0.023 A 
ATOM      7  O01 CBD B1001     153.742 145.515 155.814  1.00 27.96    -0.190 OA
ATOM      8  O02 CBD B1001     150.358 147.723 153.128  1.00 27.96    -0.190 OA
ENDROOT
BRANCH   1   9
ATOM      9  C04 CBD B1001     152.533 147.873 155.277  1.00 27.96     0.051 C 
ATOM     10  C07 CBD B1001     151.893 147.697 156.637  1.00 27.96    -0.030 C 
ATOM     11  C09 CBD B1001     152.415 148.427 157.592  1.00 27.96    -0.048 C 
ATOM     12  C06 CBD B1001     152.720 149.905 157.337  1.00 27.96     0.022 C 
ATOM     13  C13 CBD B1001     153.290 147.692 158.603  1.00 27.96     0.026 C 
ATOM     14  C05 CBD B1001     152.820 150.286 155.844  1.00 27.96     0.009 C 
ATOM     15  C03 CBD B1001     152.169 149.301 154.855  1.00 27.96     0.027 C 
BRANCH  15  16
ATOM     16  C10 CBD B1001     152.689 149.702 153.470  1.00 27.96    -0.044 C 
ATOM     17  C19 CBD B1001     152.214 150.785 152.853  1.00 27.96    -0.009 C 
ATOM     18  C14 CBD B1001     153.742 148.816 152.777  1.00 27.96     0.026 C 
ENDBRANCH  15  16
ENDBRANCH   1   9
BRANCH   4  19
ATOM     19  C18 CBD B1001     151.101 142.831 152.597  1.00 27.96     0.026 C 
BRANCH  19  20
ATOM     20  C20 CBD B1001     149.586 142.789 152.264  1.00 27.96     0.005 C 
BRANCH  20  21
ATOM     21  C21 CBD B1001     148.800 142.122 153.430  1.00 27.96     0.000 C 
BRANCH  21  22
ATOM     22  C22 CBD B1001     147.801 143.144 154.022  1.00 27.96     0.000 C 
ATOM     23  C23 CBD B1001     146.773 143.540 152.935  1.00 27.96     0.000 C 
ENDBRANCH  21  22
ENDBRANCH  20  21
ENDBRANCH  19  20
ENDBRANCH   4  19
TORSDOF 6
ENDMDL
MODEL 2
REMARK VINA RESULT:      -2.5      1.071      3.367
REMARK  6 active torsions:
REMARK  status: ('A' for Active; 'I' for Inactive)
REMARK    1  A    between atoms: C03_1  and  C10_8 
REMARK    2  A    between atoms: C04_2  and  C08_6 
REMARK    3  A    between atoms: C15_13  and  C18_16 
REMARK    4  A    between atoms: C18_16  and  C20_18 
REMARK    5  A    between atoms: C20_18  and  C21_19 
REMARK    6  A    between atoms: C21_19  and  C22_20 
ROOT
ATOM      1  C08 CBD B1001     152.100 147.214 153.805  1.00 27.96     0.033 A 
ATOM      2  C11 CBD B1001     151.168 146.970 152.803  1.00 27.96     0.129 A 
ATOM      3  C12 CBD B1001     152.707 146.131 154.456  1.00 27.96     0.129 A 
ATOM      4  C15 CBD B1001     151.377 144.597 153.125  1.00 27.96    -0.018 A 
ATOM      5  C16 CBD B1001     150.792 145.673 152.469  1.00 27.96     0.023 A 
ATOM      6  C17 CBD B1001     152.331 144.825 154.119  1.00 27.96     0.023 A 
ATOM      7  O01 CBD B1001     150.585 148.066 152.151  1.00 27.96    -0.190 OA
ATOM      8  O02 CBD B1001     153.670 146.312 155.460  1.00 27.96    -0.190 OA
ENDROOT
BRANCH   1   9
ATOM      9  C04 CBD B1001     152.423 148.711 154.026  1.00 27.96     0.051 C 
ATOM     10  C07 CBD B1001     153.516 149.012 153.023  1.00 27.96    -0.030 C 
ATOM     11  C09 CBD B1001     153.696 150.284 152.767  1.00 27.96    -0.048 C 
ATOM     12  C06 CBD B1001     153.742 151.291 153.918  1.00 27.96     0.022 C 
ATOM     13  C13 CBD B1001     153.186 150.780 151.418  1.00 27.96     0.026 C 
ATOM     14  C05 CBD B1001     153.110 150.785 155.232  1.00 27.96     0.009 C 
ATOM     15  C03 CBD B1001     152.953 149.259 155.357  1.00 27.96     0.027 C 
BRANCH  15  16
ATOM     16  C10 CBD B1001     152.015 149.036 156.549  1.00 27.96    -0.044 C 
ATOM     17  C19 CBD B1001     150.748 149.453 156.504  1.00 27.96    -0.009 C 
ATOM     18  C14 CBD B1001     152.561 148.358 157.820  1.00 27.96     0.026 C 
ENDBRANCH  15  16
ENDBRANCH   1   9
BRANCH   4  19
ATOM     19  C18 CBD B1001     150.945 143.161 152.737  1.00 27.96     0.026 C 
BRANCH  19  20
ATOM     20  C20 CBD B1001     149.594 142.839 153.429  1.00 27.96     0.005 C 
BRANCH  20  21
ATOM     21  C21 CBD B1001     148.556 142.353 152.377  1.00 27.96     0.000 C 
BRANCH  21  22
ATOM     22  C22 CBD B1001     147.321 143.283 152.413  1.00 27.96     0.000 C 
ATOM     23  C23 CBD B1001     146.625 143.153 153.790  1.00 27.96     0.000 C 
ENDBRANCH  21  22
ENDBRANCH  20  21
ENDBRANCH  19  20
ENDBRANCH   4  19
TORSDOF 6
ENDMDL
MODEL 3
REMARK VINA RESULT:      -2.3      0.635      1.991
REMARK  6 active torsions:
REMARK  status: ('A' for Active; 'I' for Inactive)
REMARK    1  A    between atoms: C03_1  and  C10_8 
REMARK    2  A    between atoms: C04_2  and  C08_6 
REMARK    3  A    between atoms: C15_13  and  C18_16 
REMARK    4  A    between atoms: C18_16  and  C20_18 
REMARK    5  A    between atoms: C20_18  and  C21_19 
REMARK    6  A    between atoms: C21_19  and  C22_20 
ROOT
ATOM      1  C08 CBD B1001     151.995 146.712 154.408  1.00 27.96     0.033 A 
ATOM      2  C11 CBD B1001     150.871 146.920 153.618  1.00 27.96     0.129 A 
ATOM      3  C12 CBD B1001     152.593 145.443 154.428  1.00 27.96     0.129 A 
ATOM      4  C15 CBD B1001     150.877 144.620 152.922  1.00 27.96    -0.018 A 
ATOM      5  C16 CBD B1001     150.299 145.883 152.889  1.00 27.96     0.023 A 
ATOM      6  C17 CBD B1001     152.021 144.399 153.692  1.00 27.96     0.023 A 
ATOM      7  O01 CBD B1001     150.297 148.200 153.597  1.00 27.96    -0.190 OA
ATOM      8  O02 CBD B1001     153.742 145.176 155.187  1.00 27.96    -0.190 OA
ENDROOT
BRANCH   1   9
ATOM      9  C04 CBD B1001     152.515 147.979 155.127  1.00 27.96     0.051 C 
ATOM     10  C07 CBD B1001     151.729 148.028 156.419  1.00 27.96    -0.030 C 
ATOM     11  C09 CBD B1001     152.243 148.792 157.350  1.00 27.96    -0.048 C 
ATOM     12  C06 CBD B1001     152.755 150.188 156.990  1.00 27.96     0.022 C 
ATOM     13  C13 CBD B1001     152.916 148.076 158.518  1.00 27.96     0.026 C 
ATOM     14  C05 CBD B1001     153.048 150.390 155.487  1.00 27.96     0.009 C 
ATOM     15  C03 CBD B1001     152.377 149.386 154.533  1.00 27.96     0.027 C 
BRANCH  15  16
ATOM     16  C10 CBD B1001     153.076 149.571 153.181  1.00 27.96    -0.044 C 
ATOM     17  C19 CBD B1001     153.738 148.561 152.614  1.00 27.96    -0.009 C 
ATOM     18  C14 CBD B1001     153.040 150.952 152.498  1.00 27.96     0.026 C 
ENDBRANCH  15  16
ENDBRANCH   1   9
BRANCH   4  19
ATOM     19  C18 CBD B1001     150.226 143.479 152.102  1.00 27.96     0.026 C 
BRANCH  19  20
ATOM     20  C20 CBD B1001     149.614 142.442 153.081  1.00 27.96     0.005 C 
BRANCH  20  21
ATOM     21  C21 CBD B1001     148.293 142.996 153.689  1.00 27.96     0.000 C 
BRANCH  21  22
ATOM     22  C22 CBD B1001     147.293 143.296 152.547  1.00 27.96     0.000 C 
ATOM     23  C23 CBD B1001     145.892 143.558 153.153  1.00 27.96     0.000 C 
ENDBRANCH  21  22
ENDBRANCH  20  21
ENDBRANCH  19  20
ENDBRANCH   4  19
TORSDOF 6
ENDMDL
MODEL 4
REMARK VINA RESULT:      -2.1      1.445      6.557
REMARK  6 active torsions:
REMARK  status: ('A' for Active; 'I' for Inactive)
REMARK    1  A    between atoms: C03_1  and  C10_8 
REMARK    2  A    between atoms: C04_2  and  C08_6 
REMARK    3  A    between atoms: C15_13  and  C18_16 
REMARK    4  A    between atoms: C18_16  and  C20_18 
REMARK    5  A    between atoms: C20_18  and  C21_19 
REMARK    6  A    between atoms: C21_19  and  C22_20 
ROOT
ATOM      1  C08 CBD B1001     151.574 145.403 153.262  1.00 27.96     0.033 A 
ATOM      2  C11 CBD B1001     152.302 145.251 154.436  1.00 27.96     0.129 A 
ATOM      3  C12 CBD B1001     151.540 146.656 152.634  1.00 27.96     0.129 A 
ATOM      4  C15 CBD B1001     152.907 147.576 154.416  1.00 27.96    -0.018 A 
ATOM      5  C16 CBD B1001     152.954 146.329 155.025  1.00 27.96     0.023 A 
ATOM      6  C17 CBD B1001     152.199 147.742 153.224  1.00 27.96     0.023 A 
ATOM      7  O01 CBD B1001     152.339 143.986 155.040  1.00 27.96    -0.190 OA
ATOM      8  O02 CBD B1001     150.841 146.868 151.436  1.00 27.96    -0.190 OA
ENDROOT
BRANCH   1   9
ATOM      9  C04 CBD B1001     150.938 144.096 152.731  1.00 27.96     0.051 C 
ATOM     10  C07 CBD B1001     149.768 143.843 153.658  1.00 27.96    -0.030 C 
ATOM     11  C09 CBD B1001     148.868 143.010 153.197  1.00 27.96    -0.048 C 
ATOM     12  C06 CBD B1001     149.312 141.703 152.536  1.00 27.96     0.022 C 
ATOM     13  C13 CBD B1001     147.554 143.626 152.726  1.00 27.96     0.026 C 
ATOM     14  C05 CBD B1001     150.778 141.700 152.054  1.00 27.96     0.009 C 
ATOM     15  C03 CBD B1001     151.695 142.763 152.686  1.00 27.96     0.027 C 
BRANCH  15  16
ATOM     16  C10 CBD B1001     152.960 142.786 151.820  1.00 27.96    -0.044 C 
ATOM     17  C19 CBD B1001     153.540 141.647 151.435  1.00 27.96    -0.009 C 
ATOM     18  C14 CBD B1001     153.580 144.141 151.429  1.00 27.96     0.026 C 
ENDBRANCH  15  16
ENDBRANCH   1   9
BRANCH   4  19
ATOM     19  C18 CBD B1001     153.641 148.764 155.087  1.00 27.96     0.026 C 
BRANCH  19  20
ATOM     20  C20 CBD B1001     152.603 149.633 155.845  1.00 27.96     0.005 C 
BRANCH  20  21
ATOM     21  C21 CBD B1001     152.785 149.467 157.381  1.00 27.96     0.000 C 
BRANCH  21  22
ATOM     22  C22 CBD B1001     151.974 148.239 157.861  1.00 27.96     0.000 C 
ATOM     23  C23 CBD B1001     152.820 147.436 158.879  1.00 27.96     0.000 C 
ENDBRANCH  21  22
ENDBRANCH  20  21
ENDBRANCH  19  20
ENDBRANCH   4  19
TORSDOF 6
ENDMDL
MODEL 5
REMARK VINA RESULT:      -1.5      1.582      6.746
REMARK  6 active torsions:
REMARK  status: ('A' for Active; 'I' for Inactive)
REMARK    1  A    between atoms: C03_1  and  C10_8 
REMARK    2  A    between atoms: C04_2  and  C08_6 
REMARK    3  A    between atoms: C15_13  and  C18_16 
REMARK    4  A    between atoms: C18_16  and  C20_18 
REMARK    5  A    between atoms: C20_18  and  C21_19 
REMARK    6  A    between atoms: C21_19  and  C22_20 
ROOT
ATOM      1  C08 CBD B1001     151.692 145.737 153.223  1.00 27.96     0.033 A 
ATOM      2  C11 CBD B1001     152.478 145.601 154.362  1.00 27.96     0.129 A 
ATOM      3  C12 CBD B1001     151.594 146.992 152.605  1.00 27.96     0.129 A 
ATOM      4  C15 CBD B1001     153.013 147.944 154.329  1.00 27.96    -0.018 A 
ATOM      5  C16 CBD B1001     153.124 146.695 154.927  1.00 27.96     0.023 A 
ATOM      6  C17 CBD B1001     152.246 148.094 153.171  1.00 27.96     0.023 A 
ATOM      7  O01 CBD B1001     152.579 144.335 154.956  1.00 27.96    -0.190 OA
ATOM      8  O02 CBD B1001     150.834 147.190 151.442  1.00 27.96    -0.190 OA
ENDROOT
BRANCH   1   9
ATOM      9  C04 CBD B1001     151.071 144.415 152.714  1.00 27.96     0.051 C 
ATOM     10  C07 CBD B1001     149.896 144.171 153.637  1.00 27.96    -0.030 C 
ATOM     11  C09 CBD B1001     149.007 143.322 153.186  1.00 27.96    -0.048 C 
ATOM     12  C06 CBD B1001     149.466 142.006 152.555  1.00 27.96     0.022 C 
ATOM     13  C13 CBD B1001     147.691 143.918 152.693  1.00 27.96     0.026 C 
ATOM     14  C05 CBD B1001     150.936 142.005 152.083  1.00 27.96     0.009 C 
ATOM     15  C03 CBD B1001     151.839 143.088 152.700  1.00 27.96     0.027 C 
BRANCH  15  16
ATOM     16  C10 CBD B1001     153.110 143.104 151.843  1.00 27.96    -0.044 C 
ATOM     17  C19 CBD B1001     153.686 141.962 151.461  1.00 27.96    -0.009 C 
ATOM     18  C14 CBD B1001     153.742 144.456 151.459  1.00 27.96     0.026 C 
ENDBRANCH  15  16
ENDBRANCH   1   9
BRANCH   4  19
ATOM     19  C18 CBD B1001     153.743 149.149 154.973  1.00 27.96     0.026 C 
BRANCH  19  20
ATOM     20  C20 CBD B1001     152.695 150.056 155.670  1.00 27.96     0.005 C 
BRANCH  20  21
ATOM     21  C21 CBD B1001     152.911 151.540 155.255  1.00 27.96     0.000 C 
BRANCH  21  22
ATOM     22  C22 CBD B1001     153.677 151.587 153.912  1.00 27.96     0.000 C 
ATOM     23  C23 CBD B1001     152.662 151.717 152.750  1.00 27.96     0.000 C 
ENDBRANCH  21  22
ENDBRANCH  20  21
ENDBRANCH  19  20
ENDBRANCH   4  19
TORSDOF 6
ENDMDL
MODEL 6
REMARK VINA RESULT:      -1.3      1.804      6.185
REMARK  6 active torsions:
REMARK  status: ('A' for Active; 'I' for Inactive)
REMARK    1  A    between atoms: C03_1  and  C10_8 
REMARK    2  A    between atoms: C04_2  and  C08_6 
REMARK    3  A    between atoms: C15_13  and  C18_16 
REMARK    4  A    between atoms: C18_16  and  C20_18 
REMARK    5  A    between atoms: C20_18  and  C21_19 
REMARK    6  A    between atoms: C21_19  and  C22_20 
ROOT
ATOM      1  C08 CBD B1001     152.769 146.853 155.465  1.00 27.96     0.033 A 
ATOM      2  C11 CBD B1001     153.356 147.593 154.445  1.00 27.96     0.129 A 
ATOM      3  C12 CBD B1001     152.448 147.486 156.674  1.00 27.96     0.129 A 
ATOM      4  C15 CBD B1001     153.378 149.561 155.824  1.00 27.96    -0.018 A 
ATOM      5  C16 CBD B1001     153.677 148.934 154.620  1.00 27.96     0.023 A 
ATOM      6  C17 CBD B1001     152.768 148.838 156.851  1.00 27.96     0.023 A 
ATOM      7  O01 CBD B1001     153.653 146.946 153.236  1.00 27.96    -0.190 OA
ATOM      8  O02 CBD B1001     151.835 146.800 157.733  1.00 27.96    -0.190 OA
ENDROOT
BRANCH   1   9
ATOM      9  C04 CBD B1001     152.454 145.385 155.089  1.00 27.96     0.051 C 
ATOM     10  C07 CBD B1001     153.742 144.641 155.368  1.00 27.96    -0.030 C 
ATOM     11  C09 CBD B1001     153.616 143.341 155.477  1.00 27.96    -0.048 C 
ATOM     12  C06 CBD B1001     152.770 142.572 154.460  1.00 27.96     0.022 C 
ATOM     13  C13 CBD B1001     153.713 142.769 156.888  1.00 27.96     0.026 C 
ATOM     14  C05 CBD B1001     151.767 143.446 153.677  1.00 27.96     0.009 C 
ATOM     15  C03 CBD B1001     152.056 144.958 153.671  1.00 27.96     0.027 C 
BRANCH  15  16
ATOM     16  C10 CBD B1001     150.775 145.621 153.149  1.00 27.96    -0.044 C 
ATOM     17  C19 CBD B1001     150.607 146.941 153.243  1.00 27.96    -0.009 C 
ATOM     18  C14 CBD B1001     149.663 144.740 152.549  1.00 27.96     0.026 C 
ENDBRANCH  15  16
ENDBRANCH   1   9
BRANCH   4  19
ATOM     19  C18 CBD B1001     153.742 151.056 155.998  1.00 27.96     0.026 C 
BRANCH  19  20
ATOM     20  C20 CBD B1001     153.627 151.766 154.623  1.00 27.96     0.005 C 
BRANCH  20  21
ATOM     21  C21 CBD B1001     152.246 151.459 153.976  1.00 27.96     0.000 C 
BRANCH  21  22
ATOM     22  C22 CBD B1001     152.417 151.328 152.444  1.00 27.96     0.000 C 
ATOM     23  C23 CBD B1001     151.392 150.303 151.902  1.00 27.96     0.000 C 
ENDBRANCH  21  22
ENDBRANCH  20  21
ENDBRANCH  19  20
ENDBRANCH   4  19
TORSDOF 6
ENDMDL
MODEL 7
REMARK VINA RESULT:      -0.6      1.911      6.673
REMARK  6 active torsions:
REMARK  status: ('A' for Active; 'I' for Inactive)
REMARK    1  A    between atoms: C03_1  and  C10_8 
REMARK    2  A    between atoms: C04_2  and  C08_6 
REMARK    3  A    between atoms: C15_13  and  C18_16 
REMARK    4  A    between atoms: C18_16  and  C20_18 
REMARK    5  A    between atoms: C20_18  and  C21_19 
REMARK    6  A    between atoms: C21_19  and  C22_20 
ROOT
ATOM      1  C08 CBD B1001     151.717 146.081 152.962  1.00 27.96     0.033 A 
ATOM      2  C11 CBD B1001     152.797 146.265 152.107  1.00 27.96     0.129 A 
ATOM      3  C12 CBD B1001     151.188 147.185 153.645  1.00 27.96     0.129 A 
ATOM      4  C15 CBD B1001     152.885 148.604 152.648  1.00 27.96    -0.018 A 
ATOM      5  C16 CBD B1001     153.394 147.512 151.957  1.00 27.96     0.023 A 
ATOM      6  C17 CBD B1001     151.786 148.442 153.494  1.00 27.96     0.023 A 
ATOM      7  O01 CBD B1001     153.300 145.152 151.418  1.00 27.96    -0.190 OA
ATOM      8  O02 CBD B1001     150.085 147.068 154.505  1.00 27.96    -0.190 OA
ENDROOT
BRANCH   1   9
ATOM      9  C04 CBD B1001     151.159 144.638 152.985  1.00 27.96     0.051 C 
ATOM     10  C07 CBD B1001     149.660 144.816 153.092  1.00 27.96    -0.030 C 
ATOM     11  C09 CBD B1001     148.953 143.763 152.763  1.00 27.96    -0.048 C 
ATOM     12  C06 CBD B1001     149.361 142.383 153.283  1.00 27.96     0.022 C 
ATOM     13  C13 CBD B1001     148.235 143.824 151.418  1.00 27.96     0.026 C 
ATOM     14  C05 CBD B1001     150.825 142.290 153.762  1.00 27.96     0.009 C 
ATOM     15  C03 CBD B1001     151.511 143.630 154.086  1.00 27.96     0.027 C 
BRANCH  15  16
ATOM     16  C10 CBD B1001     153.007 143.312 154.195  1.00 27.96    -0.044 C 
ATOM     17  C19 CBD B1001     153.718 143.737 155.241  1.00 27.96    -0.009 C 
ATOM     18  C14 CBD B1001     153.694 142.528 153.059  1.00 27.96     0.026 C 
ENDBRANCH  15  16
ENDBRANCH   1   9
BRANCH   4  19
ATOM     19  C18 CBD B1001     153.563 149.985 152.466  1.00 27.96     0.026 C 
BRANCH  19  20
ATOM     20  C20 CBD B1001     153.742 150.645 153.859  1.00 27.96     0.005 C 
BRANCH  20  21
ATOM     21  C21 CBD B1001     152.452 151.419 154.254  1.00 27.96     0.000 C 
BRANCH  21  22
ATOM     22  C22 CBD B1001     152.432 151.629 155.786  1.00 27.96     0.000 C 
ATOM     23  C23 CBD B1001     151.669 150.458 156.452  1.00 27.96     0.000 C 
ENDBRANCH  21  22
ENDBRANCH  20  21
ENDBRANCH  19  20
ENDBRANCH   4  19
TORSDOF 6
ENDMDL
MODEL 8
REMARK VINA RESULT:      -0.5      1.843      6.406
REMARK  6 active torsions:
REMARK  status: ('A' for Active; 'I' for Inactive)
REMARK    1  A    between atoms: C03_1  and  C10_8 
REMARK    2  A    between atoms: C04_2  and  C08_6 
REMARK    3  A    between atoms: C15_13  and  C18_16 
REMARK    4  A    between atoms: C18_16  and  C20_18 
REMARK    5  A    between atoms: C20_18  and  C21_19 
REMARK    6  A    between atoms: C21_19  and  C22_20 
ROOT
ATOM      1  C08 CBD B1001     152.393 146.707 153.592  1.00 27.96     0.033 A 
ATOM      2  C11 CBD B1001     153.101 147.119 152.468  1.00 27.96     0.129 A 
ATOM      3  C12 CBD B1001     151.800 147.671 154.419  1.00 27.96     0.129 A 
ATOM      4  C15 CBD B1001     152.704 149.427 153.008  1.00 27.96    -0.018 A 
ATOM      5  C16 CBD B1001     153.274 148.468 152.179  1.00 27.96     0.023 A 
ATOM      6  C17 CBD B1001     151.971 149.030 154.128  1.00 27.96     0.023 A 
ATOM      7  O01 CBD B1001     153.671 146.140 151.642  1.00 27.96    -0.190 OA
ATOM      8  O02 CBD B1001     151.055 147.319 155.555  1.00 27.96    -0.190 OA
ENDROOT
BRANCH   1   9
ATOM      9  C04 CBD B1001     152.273 145.172 153.745  1.00 27.96     0.051 C 
ATOM     10  C07 CBD B1001     153.625 144.740 154.272  1.00 27.96    -0.030 C 
ATOM     11  C09 CBD B1001     153.649 143.552 154.822  1.00 27.96    -0.048 C 
ATOM     12  C06 CBD B1001     152.953 142.379 154.128  1.00 27.96     0.022 C 
ATOM     13  C13 CBD B1001     153.742 143.513 156.344  1.00 27.96     0.026 C 
ATOM     14  C05 CBD B1001     151.893 142.796 153.085  1.00 27.96     0.009 C 
ATOM     15  C03 CBD B1001     152.001 144.239 152.559  1.00 27.96     0.027 C 
BRANCH  15  16
ATOM     16  C10 CBD B1001     150.679 144.513 151.832  1.00 27.96    -0.044 C 
ATOM     17  C19 CBD B1001     150.330 145.758 151.503  1.00 27.96    -0.009 C 
ATOM     18  C14 CBD B1001     149.734 143.336 151.519  1.00 27.96     0.026 C 
ENDBRANCH  15  16
ENDBRANCH   1   9
BRANCH   4  19
ATOM     19  C18 CBD B1001     152.907 150.924 152.668  1.00 27.96     0.026 C 
BRANCH  19  20
ATOM     20  C20 CBD B1001     152.634 151.770 153.940  1.00 27.96     0.005 C 
BRANCH  20  21
ATOM     21  C21 CBD B1001     153.742 151.513 155.001  1.00 27.96     0.000 C 
BRANCH  21  22
ATOM     22  C22 CBD B1001     153.152 151.723 156.416  1.00 27.96     0.000 C 
ATOM     23  C23 CBD B1001     152.661 150.363 156.969  1.00 27.96     0.000 C 
ENDBRANCH  21  22
ENDBRANCH  20  21
ENDBRANCH  19  20
ENDBRANCH   4  19
TORSDOF 6
ENDMDL
MODEL 9
REMARK VINA RESULT:      -0.5      1.924      2.747
REMARK  6 active torsions:
REMARK  status: ('A' for Active; 'I' for Inactive)
REMARK    1  A    between atoms: C03_1  and  C10_8 
REMARK    2  A    between atoms: C04_2  and  C08_6 
REMARK    3  A    between atoms: C15_13  and  C18_16 
REMARK    4  A    between atoms: C18_16  and  C20_18 
REMARK    5  A    between atoms: C20_18  and  C21_19 
REMARK    6  A    between atoms: C21_19  and  C22_20 
ROOT
ATOM      1  C08 CBD B1001     152.823 146.641 155.531  1.00 27.96     0.033 A 
ATOM      2  C11 CBD B1001     153.438 146.246 154.349  1.00 27.96     0.129 A 
ATOM      3  C12 CBD B1001     152.531 145.678 156.508  1.00 27.96     0.129 A 
ATOM      4  C15 CBD B1001     153.416 143.948 155.054  1.00 27.96    -0.018 A 
ATOM      5  C16 CBD B1001     153.722 144.908 154.097  1.00 27.96     0.023 A 
ATOM      6  C17 CBD B1001     152.819 144.331 156.257  1.00 27.96     0.023 A 
ATOM      7  O01 CBD B1001     153.738 147.225 153.392  1.00 27.96    -0.190 OA
ATOM      8  O02 CBD B1001     151.931 146.018 157.730  1.00 27.96    -0.190 OA
ENDROOT
BRANCH   1   9
ATOM      9  C04 CBD B1001     152.607 148.168 155.659  1.00 27.96     0.051 C 
ATOM     10  C07 CBD B1001     152.341 148.388 157.133  1.00 27.96    -0.030 C 
ATOM     11  C09 CBD B1001     152.491 149.623 157.543  1.00 27.96    -0.048 C 
ATOM     12  C06 CBD B1001     151.904 150.773 156.722  1.00 27.96     0.022 C 
ATOM     13  C13 CBD B1001     153.742 149.914 158.367  1.00 27.96     0.026 C 
ATOM     14  C05 CBD B1001     151.594 150.412 155.253  1.00 27.96     0.009 C 
ATOM     15  C03 CBD B1001     151.472 148.909 154.943  1.00 27.96     0.027 C 
BRANCH  15  16
ATOM     16  C10 CBD B1001     151.513 148.798 153.414  1.00 27.96    -0.044 C 
ATOM     17  C19 CBD B1001     150.808 147.859 152.782  1.00 27.96    -0.009 C 
ATOM     18  C14 CBD B1001     152.411 149.761 152.614  1.00 27.96     0.026 C 
ENDBRANCH  15  16
ENDBRANCH   1   9
BRANCH   4  19
ATOM     19  C18 CBD B1001     153.742 142.464 154.755  1.00 27.96     0.026 C 
BRANCH  19  20
ATOM     20  C20 CBD B1001     153.046 142.054 153.430  1.00 27.96     0.005 C 
BRANCH  20  21
ATOM     21  C21 CBD B1001     151.525 141.833 153.670  1.00 27.96     0.000 C 
BRANCH  21  22
ATOM     22  C22 CBD B1001     150.746 142.214 152.389  1.00 27.96     0.000 C 
ATOM     23  C23 CBD B1001     151.531 143.304 151.620  1.00 27.96     0.000 C 
ENDBRANCH  21  22
ENDBRANCH  20  21
ENDBRANCH  19  20
ENDBRANCH   4  19
TORSDOF 6
ENDMDL
